<?xml version="1.0" encoding="ISO-8859-1"?>
<modeling>
 <generator>
  <i name="program" type="string">vasp </i>
  <i name="version" type="string">5.4.1  </i>
  <i name="subversion" type="string">24Jun15 (build Jul 17 2015 17:09:36) gamma-only                       parallel </i>
  <i name="platform" type="string">IFC91_ompi </i>
  <i name="date" type="string">2016 06 24 </i>
  <i name="time" type="string">16:37:32 </i>
 </generator>
 <incar>
  <i type="string" name="SYSTEM"> NVT-SiO2-384at-3600K</i>
  <i type="int" name="ISTART">     0</i>
  <i type="string" name="PREC">normal</i>
  <i type="string" name="ALGO"> VeryFast</i>
  <i type="int" name="NSIM">     4</i>
  <i type="int" name="ICHARG">     2</i>
  <i type="int" name="NELM">    30</i>
  <i type="int" name="NELMIN">     4</i>
  <i type="int" name="IBRION">     0</i>
  <i name="EDIFF">      0.00000050</i>
  <i name="EDIFFG">     -0.00100000</i>
  <i type="int" name="NSW">    40</i>
  <i type="int" name="ISIF">     1</i>
  <i type="int" name="ISYM">     0</i>
  <i name="ENCUT">    600.00000000</i>
  <i name="POTIM">      1.00000000</i>
  <i name="TEBEG">   3600.00000000</i>
  <i name="SMASS">      1.00000000</i>
  <i type="logical" name="LREAL"> T  </i>
  <i type="logical" name="LPLANE"> T  </i>
  <i type="int" name="ISMEAR">     0</i>
  <i name="SIGMA">      0.10000000</i>
  <i type="logical" name="LCHARG"> T  </i>
  <i type="logical" name="LSCALU"> F  </i>
  <v type="int" name="KPOINT_BSE">    -1     0     0     0</v>
  <i type="int" name="NELM">    30</i>
  <i type="string" name="GGA">    PS</i>
 </incar>
 <kpoints>
  <generation param="Gamma">
   <v type="int" name="divisions">       1        1        1 </v>
   <v name="usershift">      0.00000000       0.00000000       0.00000000 </v>
   <v name="genvec1">      1.00000000       0.00000000       0.00000000 </v>
   <v name="genvec2">      0.00000000       1.00000000       0.00000000 </v>
   <v name="genvec3">      0.00000000       0.00000000       1.00000000 </v>
   <v name="shift">      0.00000000       0.00000000       0.00000000 </v>
  </generation>
  <varray name="kpointlist" >
   <v>       0.00000000       0.00000000       0.00000000 </v>
  </varray>
  <varray name="weights" >
   <v>       1.00000000 </v>
  </varray>
 </kpoints>
 <parameters>
  <separator name="general" >
   <i type="string" name="SYSTEM">NVT-SiO2-384at-3600K</i>
   <i type="logical" name="LCOMPAT"> F  </i>
  </separator>
  <separator name="electronic" >
   <i type="string" name="PREC">normal</i>
   <i name="ENMAX">    600.00000000</i>
   <i name="ENAUG">    605.39200000</i>
   <i name="EDIFF">      0.00000050</i>
   <i type="int" name="IALGO">    48</i>
   <i type="int" name="IWAVPR">    12</i>
   <i type="int" name="NBANDS">  1232</i>
   <i name="NELECT">   2048.00000000</i>
   <i type="int" name="TURBO">     0</i>
   <i type="int" name="IRESTART">     0</i>
   <i type="int" name="NREBOOT">     0</i>
   <i type="int" name="NMIN">     0</i>
   <i name="EREF">      0.00000000</i>
   <separator name="electronic smearing" >
    <i type="int" name="ISMEAR">     0</i>
    <i name="SIGMA">      0.10000000</i>
    <i name="KSPACING">      0.50000000</i>
    <i type="logical" name="KGAMMA"> T  </i>
   </separator>
   <separator name="electronic projectors" >
    <i type="logical" name="LREAL"> T  </i>
    <v name="ROPT">      0.00000000      0.00000000</v>
    <i type="int" name="LMAXPAW">  -100</i>
    <i type="int" name="LMAXMIX">     2</i>
    <i type="logical" name="NLSPLINE"> F  </i>
   </separator>
   <separator name="electronic startup" >
    <i type="int" name="ISTART">     0</i>
    <i type="int" name="ICHARG">     2</i>
    <i type="int" name="INIWAV">     1</i>
   </separator>
   <separator name="electronic spin" >
    <i type="int" name="ISPIN">     1</i>
    <i type="logical" name="LNONCOLLINEAR"> F  </i>
    <v name="MAGMOM">      1.00000000      1.00000000      1.00000000      1.00000000      1.00000000      1.00000000      1.00000000      1.00000000      1.00000000      1.00000000      1.00000000      1.00000000      1.00000000      1.00000000      1.00000000      1.00000000      1.00000000      1.00000000      1.00000000      1.00000000
      1.00000000      1.00000000      1.00000000      1.00000000      1.00000000      1.00000000      1.00000000      1.00000000      1.00000000      1.00000000      1.00000000      1.00000000      1.00000000      1.00000000      1.00000000      1.00000000      1.00000000      1.00000000      1.00000000      1.00000000
      1.00000000      1.00000000      1.00000000      1.00000000      1.00000000      1.00000000      1.00000000      1.00000000      1.00000000      1.00000000      1.00000000      1.00000000      1.00000000      1.00000000      1.00000000      1.00000000      1.00000000      1.00000000      1.00000000      1.00000000
      1.00000000      1.00000000      1.00000000      1.00000000      1.00000000      1.00000000      1.00000000      1.00000000      1.00000000      1.00000000      1.00000000      1.00000000      1.00000000      1.00000000      1.00000000      1.00000000      1.00000000      1.00000000      1.00000000      1.00000000
      1.00000000      1.00000000      1.00000000      1.00000000      1.00000000      1.00000000      1.00000000      1.00000000      1.00000000      1.00000000      1.00000000      1.00000000      1.00000000      1.00000000      1.00000000      1.00000000      1.00000000      1.00000000      1.00000000      1.00000000
      1.00000000      1.00000000      1.00000000      1.00000000      1.00000000      1.00000000      1.00000000      1.00000000      1.00000000      1.00000000      1.00000000      1.00000000      1.00000000      1.00000000      1.00000000      1.00000000      1.00000000      1.00000000      1.00000000      1.00000000
      1.00000000      1.00000000      1.00000000      1.00000000      1.00000000      1.00000000      1.00000000      1.00000000      1.00000000      1.00000000      1.00000000      1.00000000      1.00000000      1.00000000      1.00000000      1.00000000      1.00000000      1.00000000      1.00000000      1.00000000
      1.00000000      1.00000000      1.00000000      1.00000000      1.00000000      1.00000000      1.00000000      1.00000000      1.00000000      1.00000000      1.00000000      1.00000000      1.00000000      1.00000000      1.00000000      1.00000000      1.00000000      1.00000000      1.00000000      1.00000000
      1.00000000      1.00000000      1.00000000      1.00000000      1.00000000      1.00000000      1.00000000      1.00000000      1.00000000      1.00000000      1.00000000      1.00000000      1.00000000      1.00000000      1.00000000      1.00000000      1.00000000      1.00000000      1.00000000      1.00000000
      1.00000000      1.00000000      1.00000000      1.00000000      1.00000000      1.00000000      1.00000000      1.00000000      1.00000000      1.00000000      1.00000000      1.00000000      1.00000000      1.00000000      1.00000000      1.00000000      1.00000000      1.00000000      1.00000000      1.00000000
      1.00000000      1.00000000      1.00000000      1.00000000      1.00000000      1.00000000      1.00000000      1.00000000      1.00000000      1.00000000      1.00000000      1.00000000      1.00000000      1.00000000      1.00000000      1.00000000      1.00000000      1.00000000      1.00000000      1.00000000
      1.00000000      1.00000000      1.00000000      1.00000000      1.00000000      1.00000000      1.00000000      1.00000000      1.00000000      1.00000000      1.00000000      1.00000000      1.00000000      1.00000000      1.00000000      1.00000000      1.00000000      1.00000000      1.00000000      1.00000000
      1.00000000      1.00000000      1.00000000      1.00000000      1.00000000      1.00000000      1.00000000      1.00000000      1.00000000      1.00000000      1.00000000      1.00000000      1.00000000      1.00000000      1.00000000      1.00000000      1.00000000      1.00000000      1.00000000      1.00000000
      1.00000000      1.00000000      1.00000000      1.00000000      1.00000000      1.00000000      1.00000000      1.00000000      1.00000000      1.00000000      1.00000000      1.00000000      1.00000000      1.00000000      1.00000000      1.00000000      1.00000000      1.00000000      1.00000000      1.00000000
      1.00000000      1.00000000      1.00000000      1.00000000      1.00000000      1.00000000      1.00000000      1.00000000      1.00000000      1.00000000      1.00000000      1.00000000      1.00000000      1.00000000      1.00000000      1.00000000      1.00000000      1.00000000      1.00000000      1.00000000
      1.00000000      1.00000000      1.00000000      1.00000000      1.00000000      1.00000000      1.00000000      1.00000000      1.00000000      1.00000000      1.00000000      1.00000000      1.00000000      1.00000000      1.00000000      1.00000000      1.00000000      1.00000000      1.00000000      1.00000000
      1.00000000      1.00000000      1.00000000      1.00000000      1.00000000      1.00000000      1.00000000      1.00000000      1.00000000      1.00000000      1.00000000      1.00000000      1.00000000      1.00000000      1.00000000      1.00000000      1.00000000      1.00000000      1.00000000      1.00000000
      1.00000000      1.00000000      1.00000000      1.00000000      1.00000000      1.00000000      1.00000000      1.00000000      1.00000000      1.00000000      1.00000000      1.00000000      1.00000000      1.00000000      1.00000000      1.00000000      1.00000000      1.00000000      1.00000000      1.00000000
      1.00000000      1.00000000      1.00000000      1.00000000      1.00000000      1.00000000      1.00000000      1.00000000      1.00000000      1.00000000      1.00000000      1.00000000      1.00000000      1.00000000      1.00000000      1.00000000      1.00000000      1.00000000      1.00000000      1.00000000
      1.00000000      1.00000000      1.00000000      1.00000000</v>
    <i name="NUPDOWN">     -1.00000000</i>
    <i type="logical" name="LSORBIT"> F  </i>
    <v name="SAXIS">      0.00000000      0.00000000      1.00000000</v>
    <i type="logical" name="LSPIRAL"> F  </i>
    <v name="QSPIRAL">      0.00000000      0.00000000      0.00000000</v>
    <i type="logical" name="LZEROZ"> F  </i>
   </separator>
   <separator name="electronic exchange-correlation" >
    <i type="logical" name="LASPH"> F  </i>
    <i type="logical" name="LMETAGGA"> F  </i>
   </separator>
   <separator name="electronic convergence" >
    <i type="int" name="NELM">    30</i>
    <i type="int" name="NELMDL">   -12</i>
    <i type="int" name="NELMIN">     4</i>
    <i name="ENINI">    600.00000000</i>
    <separator name="electronic convergence detail" >
     <i type="logical" name="LDIAG"> T  </i>
     <i type="logical" name="LSUBROT"> F  </i>
     <i name="WEIMIN">      0.00100000</i>
     <i name="EBREAK">      0.00000000</i>
     <i name="DEPER">      0.30000000</i>
     <i type="int" name="NRMM">     4</i>
     <i name="TIME">      0.40000000</i>
    </separator>
   </separator>
   <separator name="electronic mixer" >
    <i name="AMIX">      0.40000000</i>
    <i name="BMIX">      1.00000000</i>
    <i name="AMIN">      0.10000000</i>
    <i name="AMIX_MAG">      1.60000000</i>
    <i name="BMIX_MAG">      1.00000000</i>
    <separator name="electronic mixer details" >
     <i type="int" name="IMIX">     4</i>
     <i type="logical" name="MIXFIRST"> F  </i>
     <i type="int" name="MAXMIX">   -45</i>
     <i name="WC">    100.00000000</i>
     <i type="int" name="INIMIX">     1</i>
     <i type="int" name="MIXPRE">     1</i>
     <i type="int" name="MREMOVE">     5</i>
    </separator>
   </separator>
   <separator name="electronic dipolcorrection" >
    <i type="logical" name="LDIPOL"> F  </i>
    <i type="logical" name="LMONO"> F  </i>
    <i type="int" name="IDIPOL">     0</i>
    <i name="EPSILON">      1.00000000</i>
    <v name="DIPOL">   -100.00000000   -100.00000000   -100.00000000</v>
    <i name="EFIELD">      0.00000000</i>
   </separator>
  </separator>
  <separator name="grids" >
   <i type="int" name="NGX">   108</i>
   <i type="int" name="NGY">   108</i>
   <i type="int" name="NGZ">   108</i>
   <i type="int" name="NGXF">   216</i>
   <i type="int" name="NGYF">   216</i>
   <i type="int" name="NGZF">   216</i>
   <i type="logical" name="ADDGRID"> F  </i>
  </separator>
  <separator name="ionic" >
   <i type="int" name="NSW">    40</i>
   <i type="int" name="IBRION">     0</i>
   <i type="int" name="ISIF">     1</i>
   <i name="PSTRESS">      0.00000000</i>
   <i name="EDIFFG">     -0.00100000</i>
   <i type="int" name="NFREE">     0</i>
   <i name="POTIM">      1.00000000</i>
   <i name="SMASS">      1.00000000</i>
   <i name="SCALEE">      1.00000000</i>
  </separator>
  <separator name="ionic md" >
   <i name="TEBEG">   3600.00000000</i>
   <i name="TEEND">   3600.00000000</i>
   <i type="int" name="NBLOCK">     1</i>
   <i type="int" name="KBLOCK">    40</i>
   <i type="int" name="NPACO">   256</i>
   <i name="APACO">     16.00000000</i>
  </separator>
  <separator name="symmetry" >
   <i type="int" name="ISYM">     0</i>
   <i name="SYMPREC">      0.00001000</i>
  </separator>
  <separator name="dos" >
   <i type="logical" name="LORBIT"> F  </i>
   <v name="RWIGS">     -1.00000000     -1.00000000</v>
   <i type="int" name="NEDOS">   301</i>
   <i name="EMIN">     10.00000000</i>
   <i name="EMAX">    -10.00000000</i>
   <i name="EFERMI">      0.00000000</i>
  </separator>
  <separator name="writing" >
   <i type="int" name="NWRITE">     2</i>
   <i type="logical" name="LWAVE"> T  </i>
   <i type="logical" name="LCHARG"> T  </i>
   <i type="logical" name="LPARD"> F  </i>
   <i type="logical" name="LVTOT"> F  </i>
   <i type="logical" name="LVHAR"> F  </i>
   <i type="logical" name="LELF"> F  </i>
   <i type="logical" name="LOPTICS"> F  </i>
   <v name="STM">      0.00000000      0.00000000      0.00000000      0.00000000      0.00000000      0.00000000      0.00000000</v>
  </separator>
  <separator name="performance" >
   <i type="int" name="NPAR">     8</i>
   <i type="int" name="NSIM">     4</i>
   <i type="int" name="NBLK">    -1</i>
   <i type="logical" name="LPLANE"> T  </i>
   <i type="logical" name="LSCALAPACK"> T  </i>
   <i type="logical" name="LSCAAWARE"> F  </i>
   <i type="logical" name="LSCALU"> F  </i>
   <i type="logical" name="LASYNC"> F  </i>
   <i type="logical" name="LORBITALREAL"> F  </i>
  </separator>
  <separator name="miscellaneous" >
   <i type="int" name="IDIOT">     3</i>
   <i type="logical" name="LMUSIC"> F  </i>
   <v name="POMASS">     28.08500000     16.00000000</v>
   <v name="DARWINR">      0.00000000      0.00000000</v>
   <v name="DARWINV">      1.00000000      1.00000000</v>
   <i type="logical" name="LCORR"> T  </i>
  </separator>
  <i type="logical" name="GGA_COMPAT"> T  </i>
  <i type="logical" name="LBERRY"> F  </i>
  <i type="int" name="ICORELEVEL">     0</i>
  <i type="logical" name="LDAU"> F  </i>
  <i type="int" name="I_CONSTRAINED_M">     0</i>
  <separator name="electronic exchange-correlation" >
   <i type="string" name="GGA">PS</i>
   <i type="int" name="VOSKOWN">     0</i>
   <i type="logical" name="LHFCALC"> F  </i>
   <i type="string" name="PRECFOCK"></i>
   <i type="logical" name="LSYMGRAD"> F  </i>
   <i type="logical" name="LHFONE"> F  </i>
   <i type="logical" name="LRHFCALC"> F  </i>
   <i type="logical" name="LTHOMAS"> F  </i>
   <i type="logical" name="LMODELHF"> F  </i>
   <i name="ENCUT4O">     -1.00000000</i>
   <i type="int" name="EXXOEP">     0</i>
   <i type="int" name="FOURORBIT">     0</i>
   <i name="AEXX">      0.00000000</i>
   <i name="HFALPHA">      0.00000000</i>
   <i name="MCALPHA">      0.00000000</i>
   <i name="ALDAX">      1.00000000</i>
   <i name="AGGAX">      1.00000000</i>
   <i name="ALDAC">      1.00000000</i>
   <i name="AGGAC">      1.00000000</i>
   <i type="int" name="NKREDX">     1</i>
   <i type="int" name="NKREDY">     1</i>
   <i type="int" name="NKREDZ">     1</i>
   <i type="logical" name="SHIFTRED"> F  </i>
   <i type="logical" name="ODDONLY"> F  </i>
   <i type="logical" name="EVENONLY"> F  </i>
   <i type="int" name="LMAXFOCK">     0</i>
   <i type="int" name="NMAXFOCKAE">     0</i>
   <i type="logical" name="LFOCKAEDFT"> F  </i>
   <i name="HFSCREEN">      0.00000000</i>
   <i name="HFSCREENC">      0.00000000</i>
   <i type="int" name="NBANDSGWLOW">     0</i>
  </separator>
  <separator name="vdW DFT" >
   <i type="logical" name="LUSE_VDW"> F  </i>
   <i name="Zab_VDW">     -0.84910000</i>
   <i name="PARAM1">      0.12340000</i>
   <i name="PARAM2">      1.00000000</i>
   <i name="PARAM3">      0.00000000</i>
  </separator>
  <separator name="model GW" >
   <i type="int" name="MODEL_GW">     0</i>
   <i name="MODEL_EPS0">      9.05619481</i>
   <i name="MODEL_ALPHA">      1.00000000</i>
  </separator>
  <separator name="linear response parameters" >
   <i type="logical" name="LEPSILON"> F  </i>
   <i type="logical" name="LRPA"> F  </i>
   <i type="logical" name="LNABLA"> F  </i>
   <i type="logical" name="LVEL"> F  </i>
   <i type="int" name="KINTER">     0</i>
   <i name="CSHIFT">      0.10000000</i>
   <i name="OMEGAMAX">     -1.00000000</i>
   <i name="DEG_THRESHOLD">      0.00200000</i>
  </separator>
  <separator name="orbital magnetization" >
   <i type="logical" name="NUCIND"> F  </i>
   <v name="MAGPOS">      0.00000000      0.00000000      0.00000000</v>
   <i type="logical" name="LNICSALL"> T  </i>
   <i type="logical" name="ORBITALMAG"> F  </i>
   <i type="logical" name="LMAGBLOCH"> F  </i>
   <i type="logical" name="LCHIMAG"> F  </i>
   <i type="logical" name="LGAUGE"> T  </i>
   <i type="int" name="MAGATOM">     0</i>
   <v name="MAGDIPOL">      0.00000000      0.00000000      0.00000000</v>
   <v name="AVECCONST">      0.00000000      0.00000000      0.00000000</v>
  </separator>
  <separator name="response functions" >
   <i type="logical" name="LADDER"> F  </i>
   <i type="logical" name="LFXC"> F  </i>
   <i type="logical" name="LHARTREE"> T  </i>
   <i type="int" name="IBSE">     0</i>
   <v type="int" name="KPOINT">    -1     0     0     0</v>
   <i type="logical" name="LTCTE"> F  </i>
   <i type="logical" name="LTETE"> F  </i>
   <i type="logical" name="LTRIPLET"> F  </i>
   <i type="logical" name="LFXCEPS"> F  </i>
   <i type="logical" name="LFXHEG"> F  </i>
   <i type="int" name="NATURALO">     0</i>
   <i type="logical" name="L2ORDER"> F  </i>
   <i type="logical" name="LUSEW"> F  </i>
   <i name="ENCUTGW">     -2.00000000</i>
   <i name="ENCUTGWSOFT">     -2.00000000</i>
   <i name="ENCUTLF">     -1.00000000</i>
   <i type="int" name="LMAXMP2">    -1</i>
   <i name="SCISSOR">      0.00000000</i>
   <i type="int" name="NOMEGA">     0</i>
   <i type="int" name="NOMEGAR">     0</i>
   <i type="int" name="NBANDSGW">    -1</i>
   <i type="int" name="NBANDSO">    -1</i>
   <i type="int" name="NBANDSV">    -1</i>
   <i type="int" name="NELM">    30</i>
   <i type="int" name="NELMHF">     1</i>
   <i type="int" name="DIM">     3</i>
   <i type="int" name="ANTIRES">     0</i>
   <i name="OMEGAMAX">    -30.00000000</i>
   <i name="OMEGAMIN">    -30.00000000</i>
   <i name="OMEGATL">   -200.00000000</i>
   <i type="int" name="OMEGAGRID">     0</i>
   <i name="CSHIFT">     -0.10000000</i>
   <i type="logical" name="SELFENERGY"> F  </i>
   <i type="logical" name="LSPECTRAL"> F  </i>
   <i type="logical" name="LSPECTRALGW"> F  </i>
   <i type="logical" name="LSINGLES"> F  </i>
   <i type="logical" name="LFERMIGW"> F  </i>
   <i type="logical" name="ODDONLYGW"> F  </i>
   <i type="logical" name="EVENONLYGW"> F  </i>
   <i type="int" name="NKREDLFX">     1</i>
   <i type="int" name="NKREDLFY">     1</i>
   <i type="int" name="NKREDLFZ">     1</i>
   <i type="int" name="MAXMEM">  1800</i>
   <i type="int" name="TELESCOPE">     0</i>
   <i type="int" name="TAUPAR">     1</i>
   <i type="int" name="OMEGAPAR">    -1</i>
   <i name="LAMBDA">      1.00000000</i>
  </separator>
  <separator name="External order field" >
   <i name="OFIELD_KAPPA">      0.00000000</i>
   <v name="OFIELD_K">      0.00000000      0.00000000      0.00000000</v>
   <i name="OFIELD_Q6_NEAR">      0.00000000</i>
   <i name="OFIELD_Q6_FAR">      0.00000000</i>
   <i name="OFIELD_A">      0.00000000</i>
  </separator>
 </parameters>
 <atominfo>
  <atoms>     384 </atoms>
  <types>       2 </types>
  <array name="atoms" >
   <dimension dim="1">ion</dimension>
   <field type="string">element</field>
   <field type="int">atomtype</field>
   <set>
    <rc><c>Si</c><c>   1</c></rc>
    <rc><c>Si</c><c>   1</c></rc>
    <rc><c>Si</c><c>   1</c></rc>
    <rc><c>Si</c><c>   1</c></rc>
    <rc><c>Si</c><c>   1</c></rc>
    <rc><c>Si</c><c>   1</c></rc>
    <rc><c>Si</c><c>   1</c></rc>
    <rc><c>Si</c><c>   1</c></rc>
    <rc><c>Si</c><c>   1</c></rc>
    <rc><c>Si</c><c>   1</c></rc>
    <rc><c>Si</c><c>   1</c></rc>
    <rc><c>Si</c><c>   1</c></rc>
    <rc><c>Si</c><c>   1</c></rc>
    <rc><c>Si</c><c>   1</c></rc>
    <rc><c>Si</c><c>   1</c></rc>
    <rc><c>Si</c><c>   1</c></rc>
    <rc><c>Si</c><c>   1</c></rc>
    <rc><c>Si</c><c>   1</c></rc>
    <rc><c>Si</c><c>   1</c></rc>
    <rc><c>Si</c><c>   1</c></rc>
    <rc><c>Si</c><c>   1</c></rc>
    <rc><c>Si</c><c>   1</c></rc>
    <rc><c>Si</c><c>   1</c></rc>
    <rc><c>Si</c><c>   1</c></rc>
    <rc><c>Si</c><c>   1</c></rc>
    <rc><c>Si</c><c>   1</c></rc>
    <rc><c>Si</c><c>   1</c></rc>
    <rc><c>Si</c><c>   1</c></rc>
    <rc><c>Si</c><c>   1</c></rc>
    <rc><c>Si</c><c>   1</c></rc>
    <rc><c>Si</c><c>   1</c></rc>
    <rc><c>Si</c><c>   1</c></rc>
    <rc><c>Si</c><c>   1</c></rc>
    <rc><c>Si</c><c>   1</c></rc>
    <rc><c>Si</c><c>   1</c></rc>
    <rc><c>Si</c><c>   1</c></rc>
    <rc><c>Si</c><c>   1</c></rc>
    <rc><c>Si</c><c>   1</c></rc>
    <rc><c>Si</c><c>   1</c></rc>
    <rc><c>Si</c><c>   1</c></rc>
    <rc><c>Si</c><c>   1</c></rc>
    <rc><c>Si</c><c>   1</c></rc>
    <rc><c>Si</c><c>   1</c></rc>
    <rc><c>Si</c><c>   1</c></rc>
    <rc><c>Si</c><c>   1</c></rc>
    <rc><c>Si</c><c>   1</c></rc>
    <rc><c>Si</c><c>   1</c></rc>
    <rc><c>Si</c><c>   1</c></rc>
    <rc><c>Si</c><c>   1</c></rc>
    <rc><c>Si</c><c>   1</c></rc>
    <rc><c>Si</c><c>   1</c></rc>
    <rc><c>Si</c><c>   1</c></rc>
    <rc><c>Si</c><c>   1</c></rc>
    <rc><c>Si</c><c>   1</c></rc>
    <rc><c>Si</c><c>   1</c></rc>
    <rc><c>Si</c><c>   1</c></rc>
    <rc><c>Si</c><c>   1</c></rc>
    <rc><c>Si</c><c>   1</c></rc>
    <rc><c>Si</c><c>   1</c></rc>
    <rc><c>Si</c><c>   1</c></rc>
    <rc><c>Si</c><c>   1</c></rc>
    <rc><c>Si</c><c>   1</c></rc>
    <rc><c>Si</c><c>   1</c></rc>
    <rc><c>Si</c><c>   1</c></rc>
    <rc><c>Si</c><c>   1</c></rc>
    <rc><c>Si</c><c>   1</c></rc>
    <rc><c>Si</c><c>   1</c></rc>
    <rc><c>Si</c><c>   1</c></rc>
    <rc><c>Si</c><c>   1</c></rc>
    <rc><c>Si</c><c>   1</c></rc>
    <rc><c>Si</c><c>   1</c></rc>
    <rc><c>Si</c><c>   1</c></rc>
    <rc><c>Si</c><c>   1</c></rc>
    <rc><c>Si</c><c>   1</c></rc>
    <rc><c>Si</c><c>   1</c></rc>
    <rc><c>Si</c><c>   1</c></rc>
    <rc><c>Si</c><c>   1</c></rc>
    <rc><c>Si</c><c>   1</c></rc>
    <rc><c>Si</c><c>   1</c></rc>
    <rc><c>Si</c><c>   1</c></rc>
    <rc><c>Si</c><c>   1</c></rc>
    <rc><c>Si</c><c>   1</c></rc>
    <rc><c>Si</c><c>   1</c></rc>
    <rc><c>Si</c><c>   1</c></rc>
    <rc><c>Si</c><c>   1</c></rc>
    <rc><c>Si</c><c>   1</c></rc>
    <rc><c>Si</c><c>   1</c></rc>
    <rc><c>Si</c><c>   1</c></rc>
    <rc><c>Si</c><c>   1</c></rc>
    <rc><c>Si</c><c>   1</c></rc>
    <rc><c>Si</c><c>   1</c></rc>
    <rc><c>Si</c><c>   1</c></rc>
    <rc><c>Si</c><c>   1</c></rc>
    <rc><c>Si</c><c>   1</c></rc>
    <rc><c>Si</c><c>   1</c></rc>
    <rc><c>Si</c><c>   1</c></rc>
    <rc><c>Si</c><c>   1</c></rc>
    <rc><c>Si</c><c>   1</c></rc>
    <rc><c>Si</c><c>   1</c></rc>
    <rc><c>Si</c><c>   1</c></rc>
    <rc><c>Si</c><c>   1</c></rc>
    <rc><c>Si</c><c>   1</c></rc>
    <rc><c>Si</c><c>   1</c></rc>
    <rc><c>Si</c><c>   1</c></rc>
    <rc><c>Si</c><c>   1</c></rc>
    <rc><c>Si</c><c>   1</c></rc>
    <rc><c>Si</c><c>   1</c></rc>
    <rc><c>Si</c><c>   1</c></rc>
    <rc><c>Si</c><c>   1</c></rc>
    <rc><c>Si</c><c>   1</c></rc>
    <rc><c>Si</c><c>   1</c></rc>
    <rc><c>Si</c><c>   1</c></rc>
    <rc><c>Si</c><c>   1</c></rc>
    <rc><c>Si</c><c>   1</c></rc>
    <rc><c>Si</c><c>   1</c></rc>
    <rc><c>Si</c><c>   1</c></rc>
    <rc><c>Si</c><c>   1</c></rc>
    <rc><c>Si</c><c>   1</c></rc>
    <rc><c>Si</c><c>   1</c></rc>
    <rc><c>Si</c><c>   1</c></rc>
    <rc><c>Si</c><c>   1</c></rc>
    <rc><c>Si</c><c>   1</c></rc>
    <rc><c>Si</c><c>   1</c></rc>
    <rc><c>Si</c><c>   1</c></rc>
    <rc><c>Si</c><c>   1</c></rc>
    <rc><c>Si</c><c>   1</c></rc>
    <rc><c>Si</c><c>   1</c></rc>
    <rc><c>Si</c><c>   1</c></rc>
    <rc><c>O </c><c>   2</c></rc>
    <rc><c>O </c><c>   2</c></rc>
    <rc><c>O </c><c>   2</c></rc>
    <rc><c>O </c><c>   2</c></rc>
    <rc><c>O </c><c>   2</c></rc>
    <rc><c>O </c><c>   2</c></rc>
    <rc><c>O </c><c>   2</c></rc>
    <rc><c>O </c><c>   2</c></rc>
    <rc><c>O </c><c>   2</c></rc>
    <rc><c>O </c><c>   2</c></rc>
    <rc><c>O </c><c>   2</c></rc>
    <rc><c>O </c><c>   2</c></rc>
    <rc><c>O </c><c>   2</c></rc>
    <rc><c>O </c><c>   2</c></rc>
    <rc><c>O </c><c>   2</c></rc>
    <rc><c>O </c><c>   2</c></rc>
    <rc><c>O </c><c>   2</c></rc>
    <rc><c>O </c><c>   2</c></rc>
    <rc><c>O </c><c>   2</c></rc>
    <rc><c>O </c><c>   2</c></rc>
    <rc><c>O </c><c>   2</c></rc>
    <rc><c>O </c><c>   2</c></rc>
    <rc><c>O </c><c>   2</c></rc>
    <rc><c>O </c><c>   2</c></rc>
    <rc><c>O </c><c>   2</c></rc>
    <rc><c>O </c><c>   2</c></rc>
    <rc><c>O </c><c>   2</c></rc>
    <rc><c>O </c><c>   2</c></rc>
    <rc><c>O </c><c>   2</c></rc>
    <rc><c>O </c><c>   2</c></rc>
    <rc><c>O </c><c>   2</c></rc>
    <rc><c>O </c><c>   2</c></rc>
    <rc><c>O </c><c>   2</c></rc>
    <rc><c>O </c><c>   2</c></rc>
    <rc><c>O </c><c>   2</c></rc>
    <rc><c>O </c><c>   2</c></rc>
    <rc><c>O </c><c>   2</c></rc>
    <rc><c>O </c><c>   2</c></rc>
    <rc><c>O </c><c>   2</c></rc>
    <rc><c>O </c><c>   2</c></rc>
    <rc><c>O </c><c>   2</c></rc>
    <rc><c>O </c><c>   2</c></rc>
    <rc><c>O </c><c>   2</c></rc>
    <rc><c>O </c><c>   2</c></rc>
    <rc><c>O </c><c>   2</c></rc>
    <rc><c>O </c><c>   2</c></rc>
    <rc><c>O </c><c>   2</c></rc>
    <rc><c>O </c><c>   2</c></rc>
    <rc><c>O </c><c>   2</c></rc>
    <rc><c>O </c><c>   2</c></rc>
    <rc><c>O </c><c>   2</c></rc>
    <rc><c>O </c><c>   2</c></rc>
    <rc><c>O </c><c>   2</c></rc>
    <rc><c>O </c><c>   2</c></rc>
    <rc><c>O </c><c>   2</c></rc>
    <rc><c>O </c><c>   2</c></rc>
    <rc><c>O </c><c>   2</c></rc>
    <rc><c>O </c><c>   2</c></rc>
    <rc><c>O </c><c>   2</c></rc>
    <rc><c>O </c><c>   2</c></rc>
    <rc><c>O </c><c>   2</c></rc>
    <rc><c>O </c><c>   2</c></rc>
    <rc><c>O </c><c>   2</c></rc>
    <rc><c>O </c><c>   2</c></rc>
    <rc><c>O </c><c>   2</c></rc>
    <rc><c>O </c><c>   2</c></rc>
    <rc><c>O </c><c>   2</c></rc>
    <rc><c>O </c><c>   2</c></rc>
    <rc><c>O </c><c>   2</c></rc>
    <rc><c>O </c><c>   2</c></rc>
    <rc><c>O </c><c>   2</c></rc>
    <rc><c>O </c><c>   2</c></rc>
    <rc><c>O </c><c>   2</c></rc>
    <rc><c>O </c><c>   2</c></rc>
    <rc><c>O </c><c>   2</c></rc>
    <rc><c>O </c><c>   2</c></rc>
    <rc><c>O </c><c>   2</c></rc>
    <rc><c>O </c><c>   2</c></rc>
    <rc><c>O </c><c>   2</c></rc>
    <rc><c>O </c><c>   2</c></rc>
    <rc><c>O </c><c>   2</c></rc>
    <rc><c>O </c><c>   2</c></rc>
    <rc><c>O </c><c>   2</c></rc>
    <rc><c>O </c><c>   2</c></rc>
    <rc><c>O </c><c>   2</c></rc>
    <rc><c>O </c><c>   2</c></rc>
    <rc><c>O </c><c>   2</c></rc>
    <rc><c>O </c><c>   2</c></rc>
    <rc><c>O </c><c>   2</c></rc>
    <rc><c>O </c><c>   2</c></rc>
    <rc><c>O </c><c>   2</c></rc>
    <rc><c>O </c><c>   2</c></rc>
    <rc><c>O </c><c>   2</c></rc>
    <rc><c>O </c><c>   2</c></rc>
    <rc><c>O </c><c>   2</c></rc>
    <rc><c>O </c><c>   2</c></rc>
    <rc><c>O </c><c>   2</c></rc>
    <rc><c>O </c><c>   2</c></rc>
    <rc><c>O </c><c>   2</c></rc>
    <rc><c>O </c><c>   2</c></rc>
    <rc><c>O </c><c>   2</c></rc>
    <rc><c>O </c><c>   2</c></rc>
    <rc><c>O </c><c>   2</c></rc>
    <rc><c>O </c><c>   2</c></rc>
    <rc><c>O </c><c>   2</c></rc>
    <rc><c>O </c><c>   2</c></rc>
    <rc><c>O </c><c>   2</c></rc>
    <rc><c>O </c><c>   2</c></rc>
    <rc><c>O </c><c>   2</c></rc>
    <rc><c>O </c><c>   2</c></rc>
    <rc><c>O </c><c>   2</c></rc>
    <rc><c>O </c><c>   2</c></rc>
    <rc><c>O </c><c>   2</c></rc>
    <rc><c>O </c><c>   2</c></rc>
    <rc><c>O </c><c>   2</c></rc>
    <rc><c>O </c><c>   2</c></rc>
    <rc><c>O </c><c>   2</c></rc>
    <rc><c>O </c><c>   2</c></rc>
    <rc><c>O </c><c>   2</c></rc>
    <rc><c>O </c><c>   2</c></rc>
    <rc><c>O </c><c>   2</c></rc>
    <rc><c>O </c><c>   2</c></rc>
    <rc><c>O </c><c>   2</c></rc>
    <rc><c>O </c><c>   2</c></rc>
    <rc><c>O </c><c>   2</c></rc>
    <rc><c>O </c><c>   2</c></rc>
    <rc><c>O </c><c>   2</c></rc>
    <rc><c>O </c><c>   2</c></rc>
    <rc><c>O </c><c>   2</c></rc>
    <rc><c>O </c><c>   2</c></rc>
    <rc><c>O </c><c>   2</c></rc>
    <rc><c>O </c><c>   2</c></rc>
    <rc><c>O </c><c>   2</c></rc>
    <rc><c>O </c><c>   2</c></rc>
    <rc><c>O </c><c>   2</c></rc>
    <rc><c>O </c><c>   2</c></rc>
    <rc><c>O </c><c>   2</c></rc>
    <rc><c>O </c><c>   2</c></rc>
    <rc><c>O </c><c>   2</c></rc>
    <rc><c>O </c><c>   2</c></rc>
    <rc><c>O </c><c>   2</c></rc>
    <rc><c>O </c><c>   2</c></rc>
    <rc><c>O </c><c>   2</c></rc>
    <rc><c>O </c><c>   2</c></rc>
    <rc><c>O </c><c>   2</c></rc>
    <rc><c>O </c><c>   2</c></rc>
    <rc><c>O </c><c>   2</c></rc>
    <rc><c>O </c><c>   2</c></rc>
    <rc><c>O </c><c>   2</c></rc>
    <rc><c>O </c><c>   2</c></rc>
    <rc><c>O </c><c>   2</c></rc>
    <rc><c>O </c><c>   2</c></rc>
    <rc><c>O </c><c>   2</c></rc>
    <rc><c>O </c><c>   2</c></rc>
    <rc><c>O </c><c>   2</c></rc>
    <rc><c>O </c><c>   2</c></rc>
    <rc><c>O </c><c>   2</c></rc>
    <rc><c>O </c><c>   2</c></rc>
    <rc><c>O </c><c>   2</c></rc>
    <rc><c>O </c><c>   2</c></rc>
    <rc><c>O </c><c>   2</c></rc>
    <rc><c>O </c><c>   2</c></rc>
    <rc><c>O </c><c>   2</c></rc>
    <rc><c>O </c><c>   2</c></rc>
    <rc><c>O </c><c>   2</c></rc>
    <rc><c>O </c><c>   2</c></rc>
    <rc><c>O </c><c>   2</c></rc>
    <rc><c>O </c><c>   2</c></rc>
    <rc><c>O </c><c>   2</c></rc>
    <rc><c>O </c><c>   2</c></rc>
    <rc><c>O </c><c>   2</c></rc>
    <rc><c>O </c><c>   2</c></rc>
    <rc><c>O </c><c>   2</c></rc>
    <rc><c>O </c><c>   2</c></rc>
    <rc><c>O </c><c>   2</c></rc>
    <rc><c>O </c><c>   2</c></rc>
    <rc><c>O </c><c>   2</c></rc>
    <rc><c>O </c><c>   2</c></rc>
    <rc><c>O </c><c>   2</c></rc>
    <rc><c>O </c><c>   2</c></rc>
    <rc><c>O </c><c>   2</c></rc>
    <rc><c>O </c><c>   2</c></rc>
    <rc><c>O </c><c>   2</c></rc>
    <rc><c>O </c><c>   2</c></rc>
    <rc><c>O </c><c>   2</c></rc>
    <rc><c>O </c><c>   2</c></rc>
    <rc><c>O </c><c>   2</c></rc>
    <rc><c>O </c><c>   2</c></rc>
    <rc><c>O </c><c>   2</c></rc>
    <rc><c>O </c><c>   2</c></rc>
    <rc><c>O </c><c>   2</c></rc>
    <rc><c>O </c><c>   2</c></rc>
    <rc><c>O </c><c>   2</c></rc>
    <rc><c>O </c><c>   2</c></rc>
    <rc><c>O </c><c>   2</c></rc>
    <rc><c>O </c><c>   2</c></rc>
    <rc><c>O </c><c>   2</c></rc>
    <rc><c>O </c><c>   2</c></rc>
    <rc><c>O </c><c>   2</c></rc>
    <rc><c>O </c><c>   2</c></rc>
    <rc><c>O </c><c>   2</c></rc>
    <rc><c>O </c><c>   2</c></rc>
    <rc><c>O </c><c>   2</c></rc>
    <rc><c>O </c><c>   2</c></rc>
    <rc><c>O </c><c>   2</c></rc>
    <rc><c>O </c><c>   2</c></rc>
    <rc><c>O </c><c>   2</c></rc>
    <rc><c>O </c><c>   2</c></rc>
    <rc><c>O </c><c>   2</c></rc>
    <rc><c>O </c><c>   2</c></rc>
    <rc><c>O </c><c>   2</c></rc>
    <rc><c>O </c><c>   2</c></rc>
    <rc><c>O </c><c>   2</c></rc>
    <rc><c>O </c><c>   2</c></rc>
    <rc><c>O </c><c>   2</c></rc>
    <rc><c>O </c><c>   2</c></rc>
    <rc><c>O </c><c>   2</c></rc>
    <rc><c>O </c><c>   2</c></rc>
    <rc><c>O </c><c>   2</c></rc>
    <rc><c>O </c><c>   2</c></rc>
    <rc><c>O </c><c>   2</c></rc>
    <rc><c>O </c><c>   2</c></rc>
    <rc><c>O </c><c>   2</c></rc>
    <rc><c>O </c><c>   2</c></rc>
    <rc><c>O </c><c>   2</c></rc>
    <rc><c>O </c><c>   2</c></rc>
    <rc><c>O </c><c>   2</c></rc>
    <rc><c>O </c><c>   2</c></rc>
    <rc><c>O </c><c>   2</c></rc>
    <rc><c>O </c><c>   2</c></rc>
    <rc><c>O </c><c>   2</c></rc>
    <rc><c>O </c><c>   2</c></rc>
    <rc><c>O </c><c>   2</c></rc>
    <rc><c>O </c><c>   2</c></rc>
    <rc><c>O </c><c>   2</c></rc>
    <rc><c>O </c><c>   2</c></rc>
    <rc><c>O </c><c>   2</c></rc>
    <rc><c>O </c><c>   2</c></rc>
    <rc><c>O </c><c>   2</c></rc>
    <rc><c>O </c><c>   2</c></rc>
    <rc><c>O </c><c>   2</c></rc>
    <rc><c>O </c><c>   2</c></rc>
    <rc><c>O </c><c>   2</c></rc>
    <rc><c>O </c><c>   2</c></rc>
    <rc><c>O </c><c>   2</c></rc>
    <rc><c>O </c><c>   2</c></rc>
    <rc><c>O </c><c>   2</c></rc>
    <rc><c>O </c><c>   2</c></rc>
    <rc><c>O </c><c>   2</c></rc>
    <rc><c>O </c><c>   2</c></rc>
    <rc><c>O </c><c>   2</c></rc>
    <rc><c>O </c><c>   2</c></rc>
    <rc><c>O </c><c>   2</c></rc>
    <rc><c>O </c><c>   2</c></rc>
    <rc><c>O </c><c>   2</c></rc>
    <rc><c>O </c><c>   2</c></rc>
   </set>
  </array>
  <array name="atomtypes" >
   <dimension dim="1">type</dimension>
   <field type="int">atomspertype</field>
   <field type="string">element</field>
   <field>mass</field>
   <field>valence</field>
   <field type="string">pseudopotential</field>
   <set>
    <rc><c> 128</c><c>Si</c><c>     28.08500000</c><c>      4.00000000</c><c> PAW_PBE Si 05Jan2001                   </c></rc>
    <rc><c> 256</c><c>O </c><c>     16.00000000</c><c>      6.00000000</c><c> PAW_PBE O 08Apr2002                    </c></rc>
   </set>
  </array>
 </atominfo>
 <structure name="initialpos" >
  <crystal>
   <varray name="basis" >
    <v>      17.96285000       0.00000000       0.00000000 </v>
    <v>       0.00000000      17.96285000       0.00000000 </v>
    <v>       0.00000000       0.00000000      17.96285000 </v>
   </varray>
   <i name="volume">   5795.96467534 </i>
   <varray name="rec_basis" >
    <v>       0.05567045       0.00000000       0.00000000 </v>
    <v>       0.00000000       0.05567045       0.00000000 </v>
    <v>       0.00000000       0.00000000       0.05567045 </v>
   </varray>
  </crystal>
  <varray name="positions" >
   <v>       0.85642497       0.72380353       0.98731555 </v>
   <v>       0.18673924       0.57450121       0.35384338 </v>
   <v>       0.56532158       0.32521801       0.83352614 </v>
   <v>       0.27996884       0.99870867       0.35488525 </v>
   <v>       0.87932134       0.27599151       0.61883464 </v>
   <v>       0.82041126       0.23604591       0.78564353 </v>
   <v>       0.20764948       0.06214492       0.74932994 </v>
   <v>       0.92624800       0.10267526       0.83025011 </v>
   <v>       0.53426451       0.65676419       0.35640135 </v>
   <v>       0.02485816       0.75455883       0.94841926 </v>
   <v>       0.79092666       0.68556145       0.42195784 </v>
   <v>       0.52451783       0.16671444       0.10705371 </v>
   <v>       0.30025536       0.63400536       0.55349190 </v>
   <v>       0.18034142       0.32982894       0.66783916 </v>
   <v>       0.42170278       0.93305767       0.38885326 </v>
   <v>       0.58329441       0.84775295       0.58200251 </v>
   <v>       0.77557278       0.69197252       0.83787287 </v>
   <v>       0.14323617       0.96313132       0.47171065 </v>
   <v>       0.15196732       0.30193793       0.34956797 </v>
   <v>       0.04092598       0.11740843       0.08852614 </v>
   <v>       0.19648805       0.93974962       0.20844772 </v>
   <v>       0.43524860       0.80012465       0.92849861 </v>
   <v>       0.30240685       0.66036621       0.14710716 </v>
   <v>       0.96986959       0.40470264       0.72715126 </v>
   <v>       0.20780229       0.13258052       0.36702853 </v>
   <v>       0.92992350       0.48176402       0.45562592 </v>
   <v>       0.23744427       0.81848250       0.11380706 </v>
   <v>       0.65912263       0.44062818       0.08782432 </v>
   <v>       0.05658454       0.57816183       0.91109206 </v>
   <v>       0.55012157       0.21816869       0.63463329 </v>
   <v>       0.87726768       0.24382099       0.22133438 </v>
   <v>       0.86023459       0.33120986       0.92372633 </v>
   <v>       0.55497688       0.05354572       0.02634628 </v>
   <v>       0.68815116       0.91164231       0.21007383 </v>
   <v>       0.91674674       0.20079621       0.47318991 </v>
   <v>       0.72535549       0.05618449       0.38137457 </v>
   <v>       0.14977536       0.06384040       0.61425610 </v>
   <v>       0.57764620       0.04765879       0.78548167 </v>
   <v>       0.19766876       0.18240155       0.52450828 </v>
   <v>       0.31495283       0.97933627       0.66357687 </v>
   <v>       0.98444131       0.33332871       0.43396510 </v>
   <v>       0.55178671       0.80288678       0.06722286 </v>
   <v>       0.00615303       0.73101135       0.60180550 </v>
   <v>       0.35678649       0.75393658       0.67182852 </v>
   <v>       0.04666924       0.83464420       0.45855541 </v>
   <v>       0.02440933       0.59823418       0.24127526 </v>
   <v>       0.39995669       0.56221492       0.25975434 </v>
   <v>       0.00106717       0.86027991       0.08839982 </v>
   <v>       0.00250331       0.01932072       0.70104168 </v>
   <v>       0.49175905       0.22447953       0.34755227 </v>
   <v>       0.87077409       0.03788559       0.57650889 </v>
   <v>       0.77340514       0.15045362       0.50874739 </v>
   <v>       0.13935468       0.79607673       0.83454766 </v>
   <v>       0.77748585       0.76414901       0.25633802 </v>
   <v>       0.17977812       0.70365045       0.63736632 </v>
   <v>       0.27443390       0.22848848       0.76569960 </v>
   <v>       0.64169470       0.66048927       0.21018714 </v>
   <v>       0.95691943       0.07562769       0.20194418 </v>
   <v>       0.90765425       0.70828301       0.13354237 </v>
   <v>       0.54133149       0.53923529       0.94571541 </v>
   <v>       0.74186094       0.30087022       0.52531168 </v>
   <v>       0.81917267       0.89160404       0.53802687 </v>
   <v>       0.15019992       0.63217852       0.80014149 </v>
   <v>       0.20277815       0.38812101       0.19743492 </v>
   <v>       0.90801933       0.34730508       0.10781630 </v>
   <v>       0.16752666       0.14592943       0.99886223 </v>
   <v>       0.36960516       0.42334663       0.54138152 </v>
   <v>       0.10488836       0.71878893       0.32929242 </v>
   <v>       0.89571541       0.93819571       0.38206365 </v>
   <v>       0.17331391       0.57016813       0.20430743 </v>
   <v>       0.11519847       0.81271520       0.19410772 </v>
   <v>       0.34112575       0.43142414       0.70066383 </v>
   <v>       0.80504431       0.44682251       0.31873616 </v>
   <v>       0.65194450       0.19425622       0.76645024 </v>
   <v>       0.98207766       0.05156413       0.42596511 </v>
   <v>       0.25215691       0.30011816       0.06688311 </v>
   <v>       0.54450413       0.35157608       0.02183964 </v>
   <v>       0.23435591       0.84253144       0.71132776 </v>
   <v>       0.17532545       0.48663578       0.88083195 </v>
   <v>       0.64707041       0.93962817       0.89308868 </v>
   <v>       0.31926005       0.27161896       0.50422172 </v>
   <v>       0.27454918       0.85224393       0.94146943 </v>
   <v>       0.94197512       0.86648497       0.66936791 </v>
   <v>       0.62074686       0.66201216       0.06408668 </v>
   <v>       0.11200817       0.08745314       0.23032757 </v>
   <v>       0.60568289       0.93046592       0.06794102 </v>
   <v>       0.43448121       0.22421078       0.77033694 </v>
   <v>       0.03466527       0.46786326       0.32871274 </v>
   <v>       0.37538765       0.38812262       0.23095954 </v>
   <v>       0.58836121       0.94387691       0.32588845 </v>
   <v>       0.61572512       0.48925206       0.78613434 </v>
   <v>       0.31689888       0.54641687       0.43381947 </v>
   <v>       0.98013138       0.25795962       0.00499819 </v>
   <v>       0.80954353       0.00449036       0.92475558 </v>
   <v>       0.50554523       0.77196094       0.76997939 </v>
   <v>       0.33631134       0.59384511       0.70358694 </v>
   <v>       0.42548796       0.28386216       0.12817565 </v>
   <v>       0.43774290       0.63575226       0.00335127 </v>
   <v>       0.05606522       0.20892283       0.88996489 </v>
   <v>       0.27437972       0.02179534       0.89138884 </v>
   <v>       0.59861597       0.54512916       0.58904005 </v>
   <v>       0.57788125       0.97449924       0.62198554 </v>
   <v>       0.42431480       0.01674220       0.52641322 </v>
   <v>       0.60600698       0.20669949       0.21267496 </v>
   <v>       0.51594327       0.62427731       0.70312508 </v>
   <v>       0.54795700       0.38715043       0.57516290 </v>
   <v>       0.82340064       0.46242999       0.05400856 </v>
   <v>       0.46904635       0.17838750       0.48519327 </v>
   <v>       0.59137404       0.51128572       0.42610094 </v>
   <v>       0.83042841       0.94878251       0.22645006 </v>
   <v>       0.75658259       0.61379612       0.63506919 </v>
   <v>       0.71268453       0.56827462       0.33894262 </v>
   <v>       0.66851034       0.81289713       0.79059187 </v>
   <v>       0.21412378       0.35062293       0.89642799 </v>
   <v>       0.51761847       0.82373630       0.42062885 </v>
   <v>       0.78573094       0.52033318       0.79797641 </v>
   <v>       0.69439437       0.34683380       0.35898422 </v>
   <v>       0.40871273       0.06032365       0.79672444 </v>
   <v>       0.80730264       0.84794762       0.77410844 </v>
   <v>       0.89763066       0.63333765       0.54000005 </v>
   <v>       0.73041738       0.20669589       0.28762956 </v>
   <v>       0.69135448       0.73822679       0.55047972 </v>
   <v>       0.13154647       0.34784413       0.49965556 </v>
   <v>       0.32310180       0.24892679       0.33440453 </v>
   <v>       0.07137629       0.32939681       0.78209593 </v>
   <v>       0.54339032       0.37111519       0.40262547 </v>
   <v>       0.90532438       0.48857155       0.89864343 </v>
   <v>       0.85155778       0.90401075       0.06450510 </v>
   <v>       0.95485610       0.39661306       0.48951460 </v>
   <v>       0.38040110       0.40322351       0.76847012 </v>
   <v>       0.90171558       0.55157574       0.49632918 </v>
   <v>       0.59173781       0.45983371       0.00108175 </v>
   <v>       0.35054655       0.94043829       0.33602497 </v>
   <v>       0.41706739       0.93821649       0.47973813 </v>
   <v>       0.60903680       0.34850613       0.34288415 </v>
   <v>       0.54359998       0.31752429       0.93447853 </v>
   <v>       0.95248462       0.75432213       0.66525468 </v>
   <v>       0.13570182       0.00835825       0.19216705 </v>
   <v>       0.83297698       0.28964905       0.54767430 </v>
   <v>       0.17165533       0.70620817       0.84656707 </v>
   <v>       0.22931413       0.91637477       0.11804176 </v>
   <v>       0.05356538       0.05484118       0.62992251 </v>
   <v>       0.10373857       0.50230930       0.39196040 </v>
   <v>       0.05125612       0.32003975       0.49842405 </v>
   <v>       0.93311811       0.02579546       0.50933310 </v>
   <v>       0.02914346       0.37262433       0.35350606 </v>
   <v>       0.45630627       0.36984222       0.06853376 </v>
   <v>       0.71276301       0.22344609       0.55904429 </v>
   <v>       0.71422535       0.25043997       0.35735296 </v>
   <v>       0.30562817       0.68042868       0.72230028 </v>
   <v>       0.15617635       0.07548291       0.31639258 </v>
   <v>       0.70584532       0.73961091       0.84556577 </v>
   <v>       0.25684624       0.36572143       0.69985029 </v>
   <v>       0.83672015       0.74797582       0.79775601 </v>
   <v>       0.26388001       0.96086836       0.26099828 </v>
   <v>       0.39241977       0.22765998       0.48303855 </v>
   <v>       0.99031544       0.75900084       0.11907378 </v>
   <v>       0.21076411       0.78660255       0.64938681 </v>
   <v>       0.12671519       0.22027621       0.36782197 </v>
   <v>       0.43738194       0.18935502       0.10336180 </v>
   <v>       0.56500430       0.52558529       0.50690826 </v>
   <v>       0.89617673       0.24565217       0.95759343 </v>
   <v>       0.20526931       0.81498178       0.89347892 </v>
   <v>       0.23786437       0.52639784       0.40332686 </v>
   <v>       0.57060215       0.00658280       0.70922748 </v>
   <v>       0.81548734       0.36785804       0.00980040 </v>
   <v>       0.12360955       0.87348980       0.49838879 </v>
   <v>       0.78760669       0.96759674       0.57496105 </v>
   <v>       0.74593011       0.82447517       0.53885462 </v>
   <v>       0.15358523       0.36562406       0.58141467 </v>
   <v>       0.71543184       0.08808138       0.48490553 </v>
   <v>       0.70920787       0.48177054       0.79595860 </v>
   <v>       0.47446096       0.71747831       0.96661130 </v>
   <v>       0.36004474       0.33698568       0.54382214 </v>
   <v>       0.60384064       0.90857893       0.24138665 </v>
   <v>       0.98639614       0.32162702       0.06198417 </v>
   <v>       0.23941208       0.08639678       0.96762638 </v>
   <v>       0.16734349       0.33687336       0.26258920 </v>
   <v>       0.66288659       0.61219366       0.13245712 </v>
   <v>       0.35792465       0.74737089       0.58013885 </v>
   <v>       0.75263619       0.98546931       0.22734971 </v>
   <v>       0.42704559       0.59885254       0.73164440 </v>
   <v>       0.18237858       0.64665340       0.70247402 </v>
   <v>       0.92852092       0.34391647       0.65036199 </v>
   <v>       0.21955138       0.43781554       0.92357341 </v>
   <v>       0.89045910       0.01322136       0.22331155 </v>
   <v>       0.59160133       0.97452080       0.83882180 </v>
   <v>       0.94504011       0.92871305       0.05580977 </v>
   <v>       0.19093614       0.54839903       0.82848753 </v>
   <v>       0.56888673       0.37844146       0.48226093 </v>
   <v>       0.96351134       0.06088934       0.11399275 </v>
   <v>       0.48627124       0.20138289       0.69616781 </v>
   <v>       0.90320424       0.86872776       0.57675861 </v>
   <v>       0.78461879       0.59116145       0.39417695 </v>
   <v>       0.34049414       0.31631639       0.27544572 </v>
   <v>       0.86069836       0.52782839       0.98658005 </v>
   <v>       0.61583284       0.76615671       0.59345275 </v>
   <v>       0.41293347       0.15222810       0.80528729 </v>
   <v>       0.15334288       0.83350985       0.74463187 </v>
   <v>       0.85850499       0.05082719       0.86315764 </v>
   <v>       0.58364579       0.45634249       0.60766125 </v>
   <v>       0.53343799       0.69114324       0.75310000 </v>
   <v>       0.23082771       0.99981968       0.81138770 </v>
   <v>       0.03629816       0.87457228       0.16673396 </v>
   <v>       0.07771886       0.02800236       0.43921670 </v>
   <v>       0.93665573       0.22282613       0.58122442 </v>
   <v>       0.02825382       0.64839396       0.32494866 </v>
   <v>       0.09200543       0.72429392       0.60742156 </v>
   <v>       0.67130113       0.58035216       0.60252461 </v>
   <v>       0.32372231       0.46129504       0.60601202 </v>
   <v>       0.81161081       0.67885232       0.92362891 </v>
   <v>       0.28485168       0.94658678       0.94983116 </v>
   <v>       0.77306474       0.54284214       0.70679104 </v>
   <v>       0.96053883       0.64876523       0.58896701 </v>
   <v>       0.12400684       0.15866772       0.90508182 </v>
   <v>       0.65608863       0.97764749       0.37818963 </v>
   <v>       0.74679092       0.39212920       0.28800388 </v>
   <v>       0.18217327       0.67006962       0.35397237 </v>
   <v>       0.21623653       0.24832560       0.70158207 </v>
   <v>       0.44839428       0.84248613       0.35801765 </v>
   <v>       0.11558768       0.52175704       0.94754179 </v>
   <v>       0.74603725       0.84786038       0.23678569 </v>
   <v>       0.56843643       0.14103901       0.03278047 </v>
   <v>       0.67730570       0.89480754       0.11788159 </v>
   <v>       0.69284841       0.12807471       0.31193470 </v>
   <v>       0.35007749       0.58377712       0.35465675 </v>
   <v>       0.70182865       0.70385937       0.46602350 </v>
   <v>       0.20933340       0.14484375       0.79848807 </v>
   <v>       0.35009479       0.99629684       0.57366334 </v>
   <v>       0.30301206       0.76341093       0.14462769 </v>
   <v>       0.13822923       0.87792059       0.25161079 </v>
   <v>       0.52297763       0.89131621       0.64590395 </v>
   <v>       0.34282500       0.27125808       0.11360048 </v>
   <v>       0.97525620       0.07817316       0.76007440 </v>
   <v>       0.00603495       0.91402240       0.70327118 </v>
   <v>       0.72210911       0.98773461       0.89572220 </v>
   <v>       0.99039317       0.18415342       0.05568058 </v>
   <v>       0.89100648       0.66088921       0.05033757 </v>
   <v>       0.96169910       0.48107179       0.36773587 </v>
   <v>       0.82739288       0.21918219       0.29152751 </v>
   <v>       0.63824314       0.11303116       0.80923458 </v>
   <v>       0.43832459       0.57582657       0.93311550 </v>
   <v>       0.84383089       0.89052213       0.30876435 </v>
   <v>       0.54839813       0.51678850       0.86767484 </v>
   <v>       0.11360110       0.11921537       0.14739818 </v>
   <v>       0.25301330       0.92582016       0.69794753 </v>
   <v>       0.84454585       0.17154405       0.44052894 </v>
   <v>       0.82227739       0.25634597       0.69430920 </v>
   <v>       0.98280464       0.34526722       0.79686701 </v>
   <v>       0.80991676       0.89425486       0.86026183 </v>
   <v>       0.32471995       0.83403748       0.70200955 </v>
   <v>       0.53113851       0.60340186       0.60455434 </v>
   <v>       0.86538463       0.16551813       0.79934158 </v>
   <v>       0.23451651       0.62330395       0.16094022 </v>
   <v>       0.69462701       0.22219386       0.20410524 </v>
   <v>       0.94662611       0.72709198       0.93544912 </v>
   <v>       0.50713004       0.82076818       0.51574730 </v>
   <v>       0.66975344       0.87600499       0.84462938 </v>
   <v>       0.26528871       0.30526195       0.83502652 </v>
   <v>       0.57848288       0.56078407       0.73531675 </v>
   <v>       0.97816710       0.79452655       0.50861334 </v>
   <v>       0.41014647       0.18371865       0.33397737 </v>
   <v>       0.61406843       0.90633332       0.96815332 </v>
   <v>       0.95102143       0.61881311       0.17380697 </v>
   <v>       0.47920525       0.28818075       0.81130386 </v>
   <v>       0.27963914       0.08616656       0.36571965 </v>
   <v>       0.85421106       0.74945442       0.20745880 </v>
   <v>       0.84079662       0.44536601       0.39540626 </v>
   <v>       0.09786369       0.61512504       0.19480248 </v>
   <v>       0.04168559       0.81650189       0.00782120 </v>
   <v>       0.82975163       0.11538847       0.57006121 </v>
   <v>       0.22264546       0.95140492       0.42316838 </v>
   <v>       0.15803795       0.47711645       0.18540738 </v>
   <v>       0.52774750       0.45955173       0.39281349 </v>
   <v>       0.00025145       0.48444248       0.71724191 </v>
   <v>       0.63228631       0.49439466       0.15892570 </v>
   <v>       0.04185213       0.26716351       0.96021252 </v>
   <v>       0.16606402       0.77790324       0.12658711 </v>
   <v>       0.50419776       0.96860915       0.34081493 </v>
   <v>       0.28438880       0.51208062       0.70501771 </v>
   <v>       0.18289250       0.12469978       0.45143608 </v>
   <v>       0.98280342       0.90282972       0.40607920 </v>
   <v>       0.64195277       0.35706208       0.06469684 </v>
   <v>       0.72719877       0.69711068       0.64027785 </v>
   <v>       0.05376766       0.80055233       0.86883851 </v>
   <v>       0.80780922       0.01974784       0.36399365 </v>
   <v>       0.21836981       0.21774498       0.06338347 </v>
   <v>       0.61883007       0.01317077       0.07826638 </v>
   <v>       0.15311565       0.15251759       0.59680598 </v>
   <v>       0.29533755       0.29048685       0.41202187 </v>
   <v>       0.48523023       0.59341703       0.30354857 </v>
   <v>       0.35239247       0.26341448       0.76016225 </v>
   <v>       0.57572694       0.11273782       0.16842528 </v>
   <v>       0.20965969       0.53888308       0.27202030 </v>
   <v>       0.47996015       0.31505440       0.37879714 </v>
   <v>       0.61363979       0.25724483       0.82579450 </v>
   <v>       0.41546174       0.09954391       0.47470285 </v>
   <v>       0.44708054       0.32532240       0.20166667 </v>
   <v>       0.84586725       0.79866804       0.04459414 </v>
   <v>       0.12872220       0.04500054       0.70019831 </v>
   <v>       0.22468305       0.66754078       0.56448328 </v>
   <v>       0.85007276       0.91461533       0.45661528 </v>
   <v>       0.98585945       0.15270048       0.43870456 </v>
   <v>       0.91415666       0.16423042       0.20087322 </v>
   <v>       0.98184796       0.15524615       0.87471615 </v>
   <v>       0.38431340       0.63428627       0.17545341 </v>
   <v>       0.18654213       0.99664440       0.55748890 </v>
   <v>       0.36004616       0.01380575       0.86553301 </v>
   <v>       0.48769886       0.71416985       0.39413644 </v>
   <v>       0.51605751       0.16583684       0.55704510 </v>
   <v>       0.64416493       0.90980325       0.57940816 </v>
   <v>       0.59065500       0.60034938       0.40534418 </v>
   <v>       0.46272973       0.39740453       0.58923227 </v>
   <v>       0.58928993       0.79018333       0.76019581 </v>
   <v>       0.20549319       0.35207195       0.11657741 </v>
   <v>       0.01724116       0.50364031       0.24353212 </v>
   <v>       0.50767125       0.01723225       0.96658518 </v>
   <v>       0.59471599       0.85940175       0.36149743 </v>
   <v>       0.55342024       0.87893281       0.11505713 </v>
   <v>       0.16990525       0.36683382       0.42076931 </v>
   <v>       0.35145399       0.57487276       0.61099432 </v>
   <v>       0.98486989       0.54390589       0.90107139 </v>
   <v>       0.61485731       0.18382337       0.68264643 </v>
   <v>       0.40466035       0.46885614       0.26525390 </v>
   <v>       0.09895619       0.74084313       0.23906907 </v>
   <v>       0.24333771       0.31423403       0.96850807 </v>
   <v>       0.81746597       0.95266540       0.99558753 </v>
   <v>       0.45484404       0.82434973       0.84467949 </v>
   <v>       0.72463791       0.83809514       0.72432508 </v>
   <v>       0.93530621       0.01746098       0.35256104 </v>
   <v>       0.73283568       0.48286667       0.07266505 </v>
   <v>       0.09349963       0.09632332       0.02512313 </v>
   <v>       0.28571749       0.40740318       0.19459529 </v>
   <v>       0.90719318       0.40692987       0.92450580 </v>
   <v>       0.70082440       0.36697536       0.57922350 </v>
   <v>       0.43576795       0.77814414       0.71612595 </v>
   <v>       0.50617763       0.81025439       0.99196285 </v>
   <v>       0.07892306       0.79015925       0.37947085 </v>
   <v>       0.39427010       0.01261179       0.70888403 </v>
   <v>       0.37092566       0.47475894       0.46757590 </v>
   <v>       0.67573813       0.73047964       0.04504600 </v>
   <v>       0.88145706       0.69461216       0.47714436 </v>
   <v>       0.49730465       0.06233794       0.81935944 </v>
   <v>       0.17435869       0.27127906       0.49142322 </v>
   <v>       0.84705980       0.28058318       0.12167293 </v>
   <v>       0.53140816       0.19371042       0.42623000 </v>
   <v>       0.54874776       0.71268148       0.10581131 </v>
   <v>       0.35850120       0.66551787       0.05569498 </v>
   <v>       0.57087472       0.40102576       0.78788768 </v>
   <v>       0.77438361       0.59712139       0.83286129 </v>
   <v>       0.54871441       0.63434519       0.00109710 </v>
   <v>       0.91201742       0.04269185       0.65851171 </v>
   <v>       0.02672869       0.11556678       0.25343481 </v>
   <v>       0.91492799       0.44043918       0.08972166 </v>
   <v>       0.24874817       0.79826494       0.02276910 </v>
   <v>       0.73393713       0.21168719       0.77818717 </v>
   <v>       0.06065584       0.60435173       0.81008319 </v>
   <v>       0.27029730       0.21404507       0.55607249 </v>
   <v>       0.82333580       0.62034417       0.55976436 </v>
   <v>       0.25659557       0.18543313       0.29022265 </v>
   <v>       0.31330483       0.61985832       0.46970980 </v>
   <v>       0.54120198       0.31157365       0.62114787 </v>
   <v>       0.86809697       0.86685489       0.71491229 </v>
   <v>       0.73234500       0.35180286       0.43563789 </v>
   <v>       0.80482895       0.72024543       0.34445923 </v>
   <v>       0.09490494       0.25772709       0.82525575 </v>
   <v>       0.60194086       0.70248942       0.28454850 </v>
   <v>       0.34344898       0.80544080       0.91917725 </v>
   <v>       0.94505972       0.31699835       0.19878795 </v>
   <v>       0.50231606       0.02758000       0.56651866 </v>
   <v>       0.84115808       0.89055084       0.15463320 </v>
   <v>       0.54789234       0.25259601       0.14309487 </v>
   <v>       0.05727693       0.65356225       0.96413437 </v>
   <v>       0.80045884       0.30639783       0.85477145 </v>
   <v>       0.25606567       0.05942135       0.66175932 </v>
   <v>       0.14463110       0.42049152       0.83280614 </v>
   <v>       0.54682904       0.23565832       0.28344593 </v>
   <v>       0.84792893       0.47119556       0.82812498 </v>
   <v>       0.92936284       0.27435490       0.41554029 </v>
   <v>       0.71743285       0.71673028       0.20863558 </v>
   <v>       0.66607308       0.59272914       0.26277141 </v>
   <v>       0.09849294       0.36632843       0.70317673 </v>
   <v>       0.80578174       0.52152982       0.28076236 </v>
   <v>       0.68403253       0.50398948       0.39450058 </v>
  </varray>
  <varray name="velocities" >
   <v>      -0.00041501       0.00030588       0.00038674 </v>
   <v>       0.00019997      -0.00033252      -0.00008199 </v>
   <v>       0.00111895       0.00044656      -0.00011158 </v>
   <v>      -0.00115301       0.00055747       0.00012157 </v>
   <v>      -0.00027968      -0.00000318      -0.00074289 </v>
   <v>      -0.00069575       0.00043957      -0.00044716 </v>
   <v>      -0.00020475      -0.00124990      -0.00090652 </v>
   <v>       0.00035684      -0.00058988       0.00069389 </v>
   <v>       0.00045025      -0.00005993       0.00013314 </v>
   <v>      -0.00034760      -0.00067517       0.00027845 </v>
   <v>       0.00063199      -0.00068641      -0.00082239 </v>
   <v>      -0.00034879      -0.00030842      -0.00073188 </v>
   <v>       0.00074240      -0.00018102       0.00062508 </v>
   <v>       0.00026832      -0.00082940       0.00066875 </v>
   <v>       0.00054614      -0.00058456      -0.00004881 </v>
   <v>       0.00169477       0.00044982      -0.00036703 </v>
   <v>      -0.00014832      -0.00001211       0.00060679 </v>
   <v>      -0.00013303       0.00036068      -0.00087099 </v>
   <v>      -0.00030396       0.00068093      -0.00015492 </v>
   <v>       0.00058837      -0.00021943      -0.00057500 </v>
   <v>      -0.00006039       0.00027595       0.00016221 </v>
   <v>      -0.00071832      -0.00082654      -0.00015225 </v>
   <v>       0.00014314      -0.00021869      -0.00000919 </v>
   <v>       0.00026126       0.00014329      -0.00094953 </v>
   <v>      -0.00109540       0.00095864      -0.00037230 </v>
   <v>       0.00115432       0.00001968       0.00034705 </v>
   <v>       0.00032603      -0.00063136      -0.00026279 </v>
   <v>       0.00003100       0.00031793      -0.00066239 </v>
   <v>       0.00051400      -0.00041564      -0.00010371 </v>
   <v>       0.00043805      -0.00065202      -0.00041539 </v>
   <v>      -0.00048783       0.00001676       0.00109553 </v>
   <v>      -0.00052745       0.00020918      -0.00071398 </v>
   <v>       0.00021050      -0.00108421       0.00110330 </v>
   <v>       0.00025178       0.00071216       0.00006670 </v>
   <v>       0.00028174      -0.00045625       0.00087153 </v>
   <v>      -0.00014165       0.00015006       0.00000876 </v>
   <v>       0.00006809      -0.00035723      -0.00006848 </v>
   <v>      -0.00135986      -0.00036134      -0.00028973 </v>
   <v>       0.00134495       0.00086799       0.00026736 </v>
   <v>      -0.00106946       0.00083205      -0.00004836 </v>
   <v>       0.00020658       0.00144009      -0.00015757 </v>
   <v>      -0.00068433       0.00087303       0.00074248 </v>
   <v>       0.00107706      -0.00033383       0.00064129 </v>
   <v>       0.00003565       0.00054977       0.00103806 </v>
   <v>      -0.00031923       0.00096997       0.00057266 </v>
   <v>       0.00005722       0.00029865      -0.00047890 </v>
   <v>       0.00069435       0.00076381       0.00034415 </v>
   <v>      -0.00180204      -0.00082965       0.00034806 </v>
   <v>       0.00056571      -0.00015118      -0.00002101 </v>
   <v>       0.00042334      -0.00030528       0.00055546 </v>
   <v>      -0.00022305      -0.00046038      -0.00071520 </v>
   <v>       0.00105238       0.00025782       0.00093829 </v>
   <v>      -0.00016619       0.00004773      -0.00025810 </v>
   <v>      -0.00076986       0.00062171       0.00004218 </v>
   <v>       0.00027615      -0.00090038      -0.00014876 </v>
   <v>      -0.00076540      -0.00024896      -0.00153356 </v>
   <v>      -0.00050717       0.00062746       0.00102209 </v>
   <v>       0.00124163      -0.00089549      -0.00068495 </v>
   <v>       0.00003706      -0.00005212       0.00039699 </v>
   <v>       0.00005100      -0.00067242      -0.00114624 </v>
   <v>       0.00042102       0.00039246       0.00057711 </v>
   <v>      -0.00025275       0.00060358       0.00034230 </v>
   <v>      -0.00031585      -0.00085786       0.00068600 </v>
   <v>      -0.00074588      -0.00090173      -0.00088557 </v>
   <v>       0.00097938       0.00012512      -0.00048898 </v>
   <v>      -0.00108854       0.00017730       0.00028424 </v>
   <v>       0.00015628      -0.00013984       0.00128950 </v>
   <v>       0.00035212      -0.00002691       0.00012623 </v>
   <v>       0.00070678      -0.00005064       0.00086884 </v>
   <v>      -0.00004880      -0.00079324       0.00006915 </v>
   <v>      -0.00034310       0.00035723      -0.00103076 </v>
   <v>       0.00046344      -0.00007802      -0.00022910 </v>
   <v>      -0.00106018       0.00021680      -0.00029950 </v>
   <v>      -0.00090639       0.00030432       0.00016529 </v>
   <v>      -0.00061680       0.00041114       0.00012313 </v>
   <v>      -0.00011745       0.00073079      -0.00051162 </v>
   <v>      -0.00057924       0.00090074       0.00059366 </v>
   <v>      -0.00026339      -0.00050210       0.00026757 </v>
   <v>      -0.00038021      -0.00034329      -0.00014519 </v>
   <v>       0.00022017       0.00094594       0.00071417 </v>
   <v>      -0.00081001       0.00025139      -0.00045291 </v>
   <v>       0.00008801       0.00165569       0.00004978 </v>
   <v>      -0.00026974      -0.00013989      -0.00071589 </v>
   <v>       0.00005331       0.00000308       0.00005511 </v>
   <v>       0.00042108       0.00019977       0.00051763 </v>
   <v>       0.00027785       0.00021335       0.00035845 </v>
   <v>       0.00058672       0.00091500      -0.00085222 </v>
   <v>       0.00101522       0.00044165      -0.00030735 </v>
   <v>       0.00013613       0.00096468      -0.00021198 </v>
   <v>      -0.00096672       0.00008789      -0.00021805 </v>
   <v>       0.00111761       0.00001096      -0.00047370 </v>
   <v>       0.00029900      -0.00000932      -0.00016437 </v>
   <v>       0.00010663       0.00078942       0.00022562 </v>
   <v>       0.00093401      -0.00052445      -0.00018664 </v>
   <v>       0.00048547       0.00018728       0.00169979 </v>
   <v>       0.00006923      -0.00036088       0.00032772 </v>
   <v>      -0.00087170       0.00126742       0.00032575 </v>
   <v>       0.00117074      -0.00036047       0.00003401 </v>
   <v>       0.00007739      -0.00058013      -0.00060552 </v>
   <v>       0.00009960       0.00042253      -0.00002337 </v>
   <v>       0.00068057      -0.00072149       0.00046606 </v>
   <v>      -0.00055067      -0.00045974      -0.00013921 </v>
   <v>       0.00003917       0.00115227      -0.00087962 </v>
   <v>       0.00018806      -0.00014643       0.00059181 </v>
   <v>       0.00007842      -0.00022032       0.00084974 </v>
   <v>       0.00002717      -0.00074352      -0.00027937 </v>
   <v>       0.00013520       0.00085668       0.00031627 </v>
   <v>       0.00014027      -0.00059467      -0.00064364 </v>
   <v>       0.00047372       0.00047021       0.00092148 </v>
   <v>       0.00110521       0.00032354       0.00063345 </v>
   <v>      -0.00038176       0.00123867      -0.00016636 </v>
   <v>       0.00035434      -0.00056502       0.00103422 </v>
   <v>       0.00014965      -0.00016795      -0.00084852 </v>
   <v>       0.00099957      -0.00013556      -0.00021895 </v>
   <v>      -0.00141485       0.00055344      -0.00052099 </v>
   <v>      -0.00038482       0.00007672       0.00086747 </v>
   <v>      -0.00034211      -0.00063765      -0.00052501 </v>
   <v>       0.00043465      -0.00018806       0.00034054 </v>
   <v>      -0.00011202       0.00016478      -0.00060583 </v>
   <v>      -0.00142482       0.00017555      -0.00008315 </v>
   <v>      -0.00005026      -0.00034215      -0.00003942 </v>
   <v>      -0.00050182      -0.00021849       0.00065919 </v>
   <v>       0.00044213      -0.00075730      -0.00039121 </v>
   <v>      -0.00020383       0.00045491       0.00033619 </v>
   <v>       0.00099230      -0.00080147      -0.00078008 </v>
   <v>       0.00010030      -0.00026779      -0.00035991 </v>
   <v>       0.00036195      -0.00037387       0.00014119 </v>
   <v>       0.00041334      -0.00005305      -0.00014173 </v>
   <v>      -0.00050841      -0.00030295      -0.00143105 </v>
   <v>       0.00109486      -0.00007295       0.00049603 </v>
   <v>      -0.00071935       0.00025357       0.00113256 </v>
   <v>       0.00017346      -0.00002379      -0.00022701 </v>
   <v>       0.00122489       0.00121010       0.00016589 </v>
   <v>      -0.00026536      -0.00049428      -0.00017338 </v>
   <v>       0.00063069       0.00035562      -0.00055395 </v>
   <v>       0.00051569      -0.00011593      -0.00028696 </v>
   <v>      -0.00048363      -0.00111007      -0.00018651 </v>
   <v>      -0.00095564       0.00082970      -0.00232976 </v>
   <v>      -0.00044405      -0.00035594      -0.00019683 </v>
   <v>      -0.00018019       0.00023159      -0.00103391 </v>
   <v>       0.00021939      -0.00170170      -0.00163610 </v>
   <v>       0.00071362       0.00039976      -0.00052364 </v>
   <v>      -0.00011573       0.00042949       0.00014900 </v>
   <v>      -0.00006122       0.00053941      -0.00111450 </v>
   <v>       0.00086151       0.00045474       0.00037435 </v>
   <v>       0.00037597      -0.00022493      -0.00178627 </v>
   <v>      -0.00060148      -0.00109893       0.00045795 </v>
   <v>      -0.00092445      -0.00174476      -0.00058947 </v>
   <v>       0.00152227      -0.00045366       0.00021461 </v>
   <v>      -0.00087840       0.00097378      -0.00034528 </v>
   <v>       0.00024760      -0.00041160       0.00124019 </v>
   <v>       0.00085056       0.00089234       0.00076720 </v>
   <v>      -0.00073393       0.00025442      -0.00091412 </v>
   <v>       0.00029465      -0.00066116      -0.00078019 </v>
   <v>       0.00048650      -0.00097575      -0.00077994 </v>
   <v>      -0.00048137      -0.00013133       0.00043653 </v>
   <v>      -0.00004921      -0.00023366      -0.00020986 </v>
   <v>      -0.00155324       0.00058370      -0.00069293 </v>
   <v>      -0.00010629       0.00076597      -0.00068048 </v>
   <v>      -0.00083964       0.00061942      -0.00012033 </v>
   <v>       0.00073044       0.00093739      -0.00124356 </v>
   <v>       0.00042266       0.00055827      -0.00056551 </v>
   <v>      -0.00050986      -0.00057559      -0.00174444 </v>
   <v>      -0.00037826      -0.00031540       0.00090574 </v>
   <v>      -0.00026113      -0.00082335      -0.00038825 </v>
   <v>      -0.00044606      -0.00027248      -0.00056620 </v>
   <v>      -0.00267963      -0.00060800       0.00065606 </v>
   <v>       0.00024095      -0.00149289      -0.00098738 </v>
   <v>       0.00039589      -0.00024998       0.00178096 </v>
   <v>       0.00001834       0.00059357      -0.00114619 </v>
   <v>      -0.00049768       0.00106194       0.00119650 </v>
   <v>      -0.00036526      -0.00076138      -0.00057003 </v>
   <v>      -0.00106344       0.00069938      -0.00014587 </v>
   <v>      -0.00054113      -0.00012229      -0.00011745 </v>
   <v>      -0.00027011       0.00039583      -0.00023250 </v>
   <v>       0.00143446      -0.00002982       0.00071791 </v>
   <v>      -0.00018921       0.00036840       0.00091533 </v>
   <v>      -0.00045039      -0.00007787      -0.00159025 </v>
   <v>      -0.00056893       0.00064935       0.00095574 </v>
   <v>       0.00102275       0.00105942      -0.00001577 </v>
   <v>       0.00114201      -0.00106697      -0.00017501 </v>
   <v>       0.00086992       0.00101861      -0.00008490 </v>
   <v>       0.00097993       0.00071481      -0.00003581 </v>
   <v>      -0.00055619       0.00022807       0.00054383 </v>
   <v>      -0.00092608       0.00030647      -0.00048768 </v>
   <v>       0.00133662       0.00088486      -0.00003257 </v>
   <v>       0.00034748      -0.00022535       0.00100675 </v>
   <v>       0.00031451      -0.00016653      -0.00098338 </v>
   <v>      -0.00036583       0.00031807       0.00044640 </v>
   <v>      -0.00095071      -0.00010819      -0.00080282 </v>
   <v>      -0.00047521       0.00081374      -0.00025113 </v>
   <v>      -0.00015267       0.00065621       0.00130638 </v>
   <v>      -0.00009164       0.00060025       0.00168681 </v>
   <v>       0.00016062       0.00040980       0.00088099 </v>
   <v>      -0.00100620       0.00014576       0.00056792 </v>
   <v>       0.00082127       0.00003625       0.00069814 </v>
   <v>      -0.00074310      -0.00162250      -0.00025831 </v>
   <v>      -0.00050486      -0.00015049       0.00065746 </v>
   <v>      -0.00021103       0.00019963      -0.00046347 </v>
   <v>      -0.00036176      -0.00050353      -0.00062621 </v>
   <v>       0.00048170       0.00046231      -0.00015519 </v>
   <v>       0.00012163      -0.00034876      -0.00046187 </v>
   <v>       0.00056834       0.00066739      -0.00032323 </v>
   <v>       0.00036245      -0.00008903      -0.00188176 </v>
   <v>      -0.00024027      -0.00109219      -0.00044939 </v>
   <v>       0.00102934       0.00070501      -0.00004316 </v>
   <v>       0.00005315       0.00140714       0.00035283 </v>
   <v>      -0.00164655       0.00063473       0.00013407 </v>
   <v>      -0.00071873       0.00101294       0.00035011 </v>
   <v>      -0.00047392       0.00084679       0.00018328 </v>
   <v>       0.00047031      -0.00011662       0.00021392 </v>
   <v>       0.00014827       0.00006018      -0.00029681 </v>
   <v>      -0.00128436       0.00044805      -0.00064476 </v>
   <v>       0.00038873      -0.00119841       0.00008298 </v>
   <v>      -0.00022682      -0.00126620       0.00054877 </v>
   <v>      -0.00030380       0.00006225      -0.00044305 </v>
   <v>       0.00044173       0.00018725      -0.00095430 </v>
   <v>       0.00157960       0.00025302      -0.00006677 </v>
   <v>       0.00080043       0.00001783      -0.00067624 </v>
   <v>       0.00071593       0.00055653      -0.00045190 </v>
   <v>       0.00033598      -0.00107163       0.00040805 </v>
   <v>       0.00044271       0.00066284       0.00119826 </v>
   <v>       0.00023943      -0.00004463       0.00045017 </v>
   <v>       0.00042831      -0.00036929      -0.00124118 </v>
   <v>       0.00018065      -0.00024427       0.00017470 </v>
   <v>      -0.00041824      -0.00074695      -0.00005343 </v>
   <v>       0.00003390      -0.00110499      -0.00071027 </v>
   <v>       0.00072679      -0.00069844      -0.00004426 </v>
   <v>       0.00020249      -0.00012646       0.00069067 </v>
   <v>       0.00064079       0.00089834       0.00060650 </v>
   <v>       0.00010000      -0.00013321      -0.00056764 </v>
   <v>       0.00018178       0.00043591      -0.00026433 </v>
   <v>      -0.00078120      -0.00094384       0.00040839 </v>
   <v>       0.00031027       0.00056745       0.00092504 </v>
   <v>      -0.00004498       0.00091303      -0.00097799 </v>
   <v>       0.00147143      -0.00043324       0.00014596 </v>
   <v>       0.00008971      -0.00088253      -0.00172062 </v>
   <v>       0.00018822       0.00042490      -0.00006041 </v>
   <v>       0.00011234       0.00087070       0.00029524 </v>
   <v>       0.00032362       0.00014791       0.00011783 </v>
   <v>      -0.00050786      -0.00028495      -0.00010862 </v>
   <v>       0.00137677      -0.00005019       0.00074049 </v>
   <v>      -0.00023626      -0.00111770      -0.00038767 </v>
   <v>       0.00132919      -0.00216314       0.00039371 </v>
   <v>      -0.00042755       0.00009923       0.00111511 </v>
   <v>       0.00137034      -0.00008505       0.00122206 </v>
   <v>       0.00088889      -0.00041429      -0.00015513 </v>
   <v>       0.00037429       0.00014136      -0.00047741 </v>
   <v>      -0.00032754       0.00002061      -0.00049875 </v>
   <v>       0.00056171      -0.00040581      -0.00025644 </v>
   <v>      -0.00079819       0.00198031      -0.00023563 </v>
   <v>      -0.00042562      -0.00023668       0.00043174 </v>
   <v>      -0.00045380       0.00013551      -0.00075690 </v>
   <v>       0.00046625       0.00033563      -0.00050203 </v>
   <v>       0.00006309      -0.00073276       0.00009383 </v>
   <v>      -0.00109847       0.00095799       0.00126188 </v>
   <v>      -0.00097549      -0.00016397       0.00050170 </v>
   <v>       0.00001582      -0.00037938      -0.00085681 </v>
   <v>       0.00023012       0.00067901      -0.00004381 </v>
   <v>      -0.00028185       0.00063864       0.00018219 </v>
   <v>      -0.00050535      -0.00168589      -0.00053006 </v>
   <v>      -0.00012760      -0.00168493      -0.00047697 </v>
   <v>      -0.00003960      -0.00025383       0.00087007 </v>
   <v>      -0.00061594      -0.00091623      -0.00136265 </v>
   <v>       0.00069263      -0.00019684      -0.00003727 </v>
   <v>       0.00015652      -0.00126012       0.00057534 </v>
   <v>      -0.00050906      -0.00125893      -0.00032171 </v>
   <v>       0.00071234       0.00108037       0.00020931 </v>
   <v>      -0.00042038      -0.00065165      -0.00029986 </v>
   <v>       0.00007181      -0.00029372      -0.00022844 </v>
   <v>       0.00033439       0.00031098       0.00006738 </v>
   <v>      -0.00109519      -0.00072722      -0.00000818 </v>
   <v>      -0.00037028       0.00129352      -0.00052635 </v>
   <v>      -0.00058648      -0.00152151       0.00013324 </v>
   <v>      -0.00012832      -0.00066446       0.00084828 </v>
   <v>      -0.00011494      -0.00270605      -0.00051388 </v>
   <v>      -0.00137405       0.00142413       0.00104849 </v>
   <v>      -0.00019472      -0.00024812      -0.00031446 </v>
   <v>       0.00109033      -0.00088244      -0.00029854 </v>
   <v>      -0.00024619      -0.00130921       0.00142520 </v>
   <v>       0.00039434      -0.00063127      -0.00030488 </v>
   <v>      -0.00070444      -0.00051023       0.00061947 </v>
   <v>      -0.00038133      -0.00103776      -0.00009720 </v>
   <v>      -0.00084354       0.00080480       0.00071704 </v>
   <v>       0.00067003       0.00036899      -0.00073299 </v>
   <v>       0.00055578       0.00064425      -0.00102589 </v>
   <v>      -0.00073298      -0.00091076       0.00033752 </v>
   <v>      -0.00039877      -0.00067720       0.00120076 </v>
   <v>       0.00067856      -0.00036177       0.00086691 </v>
   <v>       0.00046029      -0.00012374      -0.00164367 </v>
   <v>       0.00007203      -0.00040882       0.00001598 </v>
   <v>       0.00118614       0.00037582       0.00084702 </v>
   <v>       0.00042229      -0.00002123       0.00058413 </v>
   <v>       0.00004597       0.00084215       0.00002296 </v>
   <v>      -0.00008316      -0.00034171       0.00106516 </v>
   <v>       0.00038224      -0.00087117       0.00084092 </v>
   <v>      -0.00072637      -0.00048124       0.00049274 </v>
   <v>      -0.00052107      -0.00001953       0.00180480 </v>
   <v>      -0.00021693      -0.00002548       0.00167407 </v>
   <v>      -0.00055801       0.00019965      -0.00047690 </v>
   <v>      -0.00078879       0.00175025       0.00168315 </v>
   <v>      -0.00101849      -0.00019562      -0.00105550 </v>
   <v>      -0.00043569      -0.00056343       0.00042462 </v>
   <v>      -0.00012052       0.00030678      -0.00072232 </v>
   <v>      -0.00048988       0.00130738      -0.00084670 </v>
   <v>       0.00014195       0.00124884      -0.00147421 </v>
   <v>       0.00002195       0.00084207       0.00021863 </v>
   <v>       0.00111296       0.00015584      -0.00027383 </v>
   <v>      -0.00006013       0.00065430       0.00001059 </v>
   <v>      -0.00136878      -0.00052774      -0.00011443 </v>
   <v>       0.00056748       0.00074450       0.00064348 </v>
   <v>       0.00035513       0.00029429      -0.00029636 </v>
   <v>       0.00089231       0.00054536      -0.00022654 </v>
   <v>       0.00151229      -0.00079226       0.00055820 </v>
   <v>      -0.00034142      -0.00048948       0.00153632 </v>
   <v>      -0.00050041       0.00047402      -0.00060328 </v>
   <v>      -0.00029073       0.00013292       0.00061802 </v>
   <v>       0.00030069      -0.00020451      -0.00005965 </v>
   <v>       0.00003986       0.00071262      -0.00128619 </v>
   <v>       0.00018247      -0.00020995      -0.00011602 </v>
   <v>       0.00066160      -0.00060677      -0.00059225 </v>
   <v>       0.00092519       0.00147649       0.00122389 </v>
   <v>       0.00145278      -0.00072018      -0.00009198 </v>
   <v>      -0.00001600       0.00040201      -0.00017912 </v>
   <v>      -0.00031884       0.00074658       0.00056463 </v>
   <v>       0.00086876       0.00083501      -0.00027132 </v>
   <v>      -0.00089096       0.00046398      -0.00137955 </v>
   <v>      -0.00006716       0.00011934      -0.00090523 </v>
   <v>       0.00140068      -0.00115208      -0.00037323 </v>
   <v>      -0.00086318       0.00048207      -0.00099144 </v>
[...]
   <v>      -0.00123766      -0.00039393       0.00064123 </v>
   <v>       0.00042055       0.00023012      -0.00070423 </v>
   <v>       0.00015931      -0.00019475      -0.00028858 </v>
   <v>      -0.00031015       0.00097560       0.00068192 </v>
   <v>       0.00022177      -0.00043475       0.00030506 </v>
   <v>      -0.00011313       0.00025295      -0.00057504 </v>
   <v>       0.00026765       0.00001043       0.00095632 </v>
   <v>      -0.00025815       0.00035932       0.00043141 </v>
   <v>      -0.00052851      -0.00039149      -0.00027402 </v>
   <v>      -0.00034839       0.00154048       0.00006327 </v>
   <v>      -0.00021918       0.00036469       0.00029593 </v>
   <v>       0.00092741      -0.00009746      -0.00032003 </v>
   <v>       0.00029790       0.00048629       0.00015412 </v>
   <v>       0.00093354      -0.00027273      -0.00058026 </v>
   <v>      -0.00056034       0.00077454      -0.00092687 </v>
   <v>       0.00018098       0.00004006       0.00029579 </v>
   <v>      -0.00076676       0.00044989      -0.00005721 </v>
   <v>       0.00036535      -0.00005556       0.00010990 </v>
   <v>      -0.00098799      -0.00066629       0.00006858 </v>
   <v>      -0.00044843       0.00076042       0.00024315 </v>
   <v>      -0.00094574       0.00012352      -0.00011951 </v>
   <v>      -0.00006313       0.00061670      -0.00034187 </v>
   <v>       0.00053577      -0.00127297       0.00055697 </v>
   <v>       0.00001228       0.00038343       0.00131439 </v>
   <v>       0.00124196       0.00060840      -0.00086139 </v>
   <v>      -0.00024416       0.00067722       0.00058011 </v>
   <v>       0.00085531      -0.00034134       0.00006450 </v>
   <v>       0.00030378       0.00097692       0.00011604 </v>
   <v>       0.00067734      -0.00013235      -0.00070153 </v>
   <v>      -0.00035134      -0.00028251      -0.00039309 </v>
   <v>      -0.00006079       0.00018193      -0.00123705 </v>
   <v>       0.00012367      -0.00139766       0.00051018 </v>
   <v>      -0.00046696      -0.00088189      -0.00023513 </v>
   <v>      -0.00007542      -0.00045836       0.00093728 </v>
   <v>      -0.00002014      -0.00017969      -0.00015511 </v>
   <v>      -0.00017553       0.00026784       0.00018023 </v>
   <v>       0.00061648      -0.00047554       0.00042466 </v>
   <v>       0.00093549       0.00041685       0.00010123 </v>
   <v>      -0.00036886      -0.00048823       0.00016465 </v>
   <v>      -0.00013798      -0.00066969      -0.00007218 </v>
   <v>      -0.00007577       0.00051574       0.00015863 </v>
   <v>       0.00050297       0.00047516      -0.00052456 </v>
   <v>      -0.00032497      -0.00053444       0.00028772 </v>
   <v>      -0.00052627       0.00060810      -0.00005509 </v>
   <v>      -0.00003004      -0.00034352       0.00050733 </v>
   <v>       0.00084169      -0.00000466      -0.00002093 </v>
   <v>      -0.00025421       0.00035378      -0.00079472 </v>
   <v>       0.00015633       0.00070276       0.00076717 </v>
   <v>      -0.00035895      -0.00061089       0.00014631 </v>
   <v>      -0.00084593       0.00135358       0.00089315 </v>
   <v>       0.00045320      -0.00048517      -0.00035792 </v>
   <v>      -0.00012276      -0.00021699      -0.00079064 </v>
   <v>       0.00062916       0.00032293       0.00003905 </v>
   <v>       0.00057033       0.00061772       0.00088403 </v>
   <v>       0.00040348      -0.00007700      -0.00137391 </v>
   <v>      -0.00101425       0.00142360       0.00064593 </v>
   <v>       0.00065102      -0.00071586      -0.00025131 </v>
   <v>       0.00021871       0.00065270       0.00018679 </v>
   <v>       0.00002862       0.00022824      -0.00072127 </v>
   <v>      -0.00004610       0.00038360       0.00079627 </v>
   <v>       0.00072402       0.00057613      -0.00211465 </v>
   <v>       0.00050915      -0.00018470      -0.00104629 </v>
   <v>       0.00019072      -0.00140123      -0.00094108 </v>
   <v>      -0.00057920       0.00037427       0.00162216 </v>
   <v>       0.00028978      -0.00003944      -0.00036768 </v>
   <v>       0.00052482      -0.00114773      -0.00073541 </v>
   <v>       0.00012053      -0.00030874       0.00062673 </v>
   <v>      -0.00016535       0.00172989      -0.00069575 </v>
   <v>       0.00042067       0.00051199      -0.00073779 </v>
   <v>       0.00108044       0.00013686       0.00019741 </v>
   <v>      -0.00089073       0.00090355       0.00038188 </v>
   <v>      -0.00023896      -0.00021363       0.00003514 </v>
   <v>       0.00174582      -0.00095389      -0.00099912 </v>
   <v>      -0.00118084       0.00010865       0.00003925 </v>
   <v>       0.00031258       0.00004619      -0.00082233 </v>
   <v>       0.00016987       0.00055709      -0.00060146 </v>
   <v>      -0.00046127      -0.00071217      -0.00027218 </v>
   <v>      -0.00027987       0.00111033       0.00060284 </v>
   <v>      -0.00015054      -0.00018953      -0.00044732 </v>
   <v>       0.00039364      -0.00017807      -0.00085775 </v>
   <v>      -0.00029669       0.00066288       0.00043348 </v>
   <v>       0.00079506      -0.00017526       0.00085145 </v>
   <v>       0.00000945       0.00173467      -0.00078161 </v>
   <v>      -0.00051879      -0.00014518      -0.00030087 </v>
   <v>      -0.00119996       0.00052087       0.00140064 </v>
   <v>       0.00134355      -0.00078210       0.00110618 </v>
   <v>      -0.00081949       0.00078986      -0.00003977 </v>
   <v>       0.00140296       0.00049767      -0.00040422 </v>
   <v>      -0.00022760       0.00073503       0.00075134 </v>
   <v>       0.00013993      -0.00026818      -0.00008626 </v>
   <v>      -0.00078568       0.00101455      -0.00051772 </v>
   <v>       0.00049137      -0.00014464       0.00078272 </v>
   <v>       0.00039730      -0.00052647       0.00056211 </v>
   <v>      -0.00105068       0.00026837       0.00079739 </v>
   <v>      -0.00034585       0.00018059       0.00001486 </v>
   <v>       0.00043274       0.00069075       0.00007929 </v>
   <v>      -0.00115168      -0.00010856      -0.00024300 </v>
   <v>      -0.00104084      -0.00009714      -0.00150499 </v>
   <v>      -0.00126323      -0.00094455      -0.00044344 </v>
   <v>      -0.00029834      -0.00063471      -0.00084516 </v>
   <v>       0.00048156       0.00031923      -0.00036866 </v>
   <v>       0.00076361      -0.00004256      -0.00063039 </v>
   <v>       0.00101162       0.00057751       0.00128337 </v>
   <v>      -0.00081133       0.00046914      -0.00040700 </v>
   <v>      -0.00026944       0.00037481      -0.00101757 </v>
   <v>      -0.00058765      -0.00003708      -0.00091527 </v>
   <v>       0.00114125      -0.00007280       0.00059573 </v>
   <v>      -0.00173914      -0.00109581      -0.00010278 </v>
   <v>       0.00158363       0.00075090       0.00017744 </v>
   <v>       0.00020334       0.00110776      -0.00021100 </v>
   <v>      -0.00116101      -0.00002353       0.00035643 </v>
   <v>       0.00190670       0.00118903      -0.00020489 </v>
   <v>       0.00026732      -0.00010046       0.00001930 </v>
   <v>      -0.00102477      -0.00092700       0.00113803 </v>
   <v>      -0.00075806      -0.00109818      -0.00125120 </v>
   <v>       0.00097762       0.00184086      -0.00041945 </v>
   <v>       0.00091609      -0.00096445      -0.00171772 </v>
   <v>      -0.00014583       0.00001403       0.00020463 </v>
   <v>       0.00005356       0.00031338       0.00053970 </v>
   <v>      -0.00056037      -0.00080741      -0.00083307 </v>
   <v>      -0.00085948      -0.00015579      -0.00060257 </v>
   <v>       0.00012120      -0.00082391       0.00049463 </v>
   <v>       0.00165516       0.00030054       0.00047462 </v>
   <v>       0.00014016      -0.00019837       0.00024071 </v>
   <v>       0.00059536      -0.00096960      -0.00004646 </v>
   <v>      -0.00034446       0.00123906      -0.00039883 </v>
   <v>       0.00041916       0.00072220       0.00000235 </v>
   <v>      -0.00084015      -0.00075651       0.00066482 </v>
   <v>       0.00198714       0.00076858      -0.00135418 </v>
   <v>       0.00089572       0.00021005      -0.00066425 </v>
   <v>       0.00015896      -0.00012079       0.00049849 </v>
   <v>       0.00083414      -0.00061123       0.00055059 </v>
   <v>      -0.00004247       0.00142879       0.00053888 </v>
   <v>       0.00011711       0.00038892       0.00138506 </v>
   <v>      -0.00135374       0.00053631       0.00095370 </v>
   <v>       0.00061063      -0.00074909       0.00092604 </v>
   <v>       0.00110584       0.00011800      -0.00053208 </v>
   <v>       0.00021262      -0.00019956      -0.00020528 </v>
   <v>       0.00005385       0.00109370       0.00076707 </v>
   <v>       0.00086803      -0.00135849       0.00135469 </v>
   <v>      -0.00048956      -0.00020073      -0.00005525 </v>
   <v>       0.00144504       0.00033933       0.00029712 </v>
   <v>      -0.00020073       0.00100045       0.00038710 </v>
   <v>      -0.00077637       0.00022104       0.00095052 </v>
   <v>       0.00008658       0.00115654      -0.00067240 </v>
   <v>      -0.00101446       0.00075179      -0.00019308 </v>
   <v>       0.00041962       0.00026406      -0.00022652 </v>
   <v>       0.00024654       0.00035786       0.00071036 </v>
   <v>       0.00054557      -0.00191411       0.00149596 </v>
   <v>      -0.00172313      -0.00022753       0.00085338 </v>
   <v>       0.00096419       0.00122897       0.00082499 </v>
   <v>      -0.00018052       0.00011259       0.00156995 </v>
   <v>      -0.00019322      -0.00045505      -0.00105993 </v>
   <v>       0.00025705      -0.00006577       0.00018345 </v>
   <v>      -0.00081025       0.00033345       0.00038700 </v>
   <v>      -0.00002283      -0.00008318      -0.00013044 </v>
   <v>      -0.00045473      -0.00040017      -0.00006944 </v>
   <v>       0.00015459      -0.00016605       0.00077696 </v>
   <v>       0.00096414       0.00061931      -0.00040831 </v>
   <v>       0.00050063      -0.00055869       0.00013591 </v>
   <v>      -0.00030904      -0.00029646       0.00117015 </v>
   <v>      -0.00041278      -0.00037446      -0.00137996 </v>
   <v>      -0.00039136       0.00049215      -0.00040091 </v>
   <v>      -0.00070969       0.00019777       0.00019607 </v>
   <v>      -0.00121987       0.00014024      -0.00076798 </v>
   <v>      -0.00093737      -0.00012431      -0.00117299 </v>
   <v>       0.00129719       0.00055767      -0.00060696 </v>
   <v>       0.00095059      -0.00055601      -0.00017334 </v>
   <v>       0.00095603      -0.00027370       0.00039954 </v>
   <v>      -0.00146390      -0.00084277       0.00019449 </v>
   <v>      -0.00022163       0.00042644       0.00183065 </v>
   <v>      -0.00112108      -0.00042970      -0.00056019 </v>
   <v>      -0.00075220       0.00021433      -0.00018680 </v>
   <v>       0.00045134      -0.00051828       0.00051995 </v>
   <v>       0.00087238       0.00023050      -0.00198437 </v>
   <v>       0.00143772       0.00048542       0.00005675 </v>
   <v>      -0.00105831       0.00028326       0.00028120 </v>
   <v>      -0.00022358       0.00031940      -0.00118674 </v>
   <v>      -0.00033711       0.00017777       0.00029504 </v>
   <v>       0.00048269       0.00012932      -0.00064411 </v>
   <v>      -0.00029894      -0.00123978       0.00006932 </v>
   <v>       0.00096066      -0.00191456      -0.00054926 </v>
   <v>      -0.00024424      -0.00062538       0.00050370 </v>
   <v>      -0.00122012       0.00009672       0.00098409 </v>
   <v>       0.00003824      -0.00054032       0.00043343 </v>
   <v>       0.00150256       0.00004576      -0.00085407 </v>
   <v>      -0.00001619      -0.00015328       0.00093561 </v>
   <v>      -0.00103510       0.00027466       0.00012919 </v>
   <v>       0.00041823       0.00057839      -0.00120994 </v>
   <v>       0.00107136       0.00070752       0.00066843 </v>
   <v>      -0.00130664      -0.00000621       0.00078607 </v>
   <v>       0.00030326      -0.00125452       0.00089840 </v>
   <v>       0.00013421      -0.00014395      -0.00008237 </v>
   <v>       0.00062701       0.00050028      -0.00088763 </v>
   <v>       0.00115170       0.00036454       0.00142484 </v>
   <v>      -0.00020256      -0.00055858       0.00087274 </v>
   <v>      -0.00077703       0.00025641       0.00053561 </v>
   <v>      -0.00147950      -0.00068889       0.00008458 </v>
   <v>      -0.00053846      -0.00020547       0.00130588 </v>
   <v>       0.00020959       0.00068998      -0.00080484 </v>
   <v>       0.00144194      -0.00032945      -0.00100986 </v>
   <v>       0.00217801      -0.00158837       0.00038231 </v>
   <v>      -0.00120105       0.00007404      -0.00007340 </v>
   <v>      -0.00102850      -0.00011663      -0.00037517 </v>
   <v>       0.00045195       0.00108060      -0.00031558 </v>
   <v>      -0.00004557      -0.00097868      -0.00067317 </v>
   <v>      -0.00048898       0.00022772      -0.00037363 </v>
   <v>      -0.00043335      -0.00061856      -0.00017089 </v>
   <v>      -0.00053203       0.00081088       0.00077740 </v>
   <v>      -0.00093533      -0.00020103       0.00067825 </v>
   <v>       0.00051861      -0.00033290      -0.00001163 </v>
   <v>       0.00079384      -0.00001736       0.00047084 </v>
   <v>       0.00025680      -0.00054688       0.00026560 </v>
   <v>      -0.00020033      -0.00186782       0.00091876 </v>
   <v>       0.00114666       0.00014152      -0.00110972 </v>
   <v>       0.00003198       0.00004084       0.00022972 </v>
   <v>       0.00139528       0.00038671      -0.00087835 </v>
   <v>       0.00007526      -0.00125126       0.00052709 </v>
   <v>      -0.00077372      -0.00141908      -0.00182559 </v>
   <v>      -0.00004385       0.00039610      -0.00061394 </v>
   <v>      -0.00012226       0.00045958      -0.00065302 </v>
   <v>       0.00101694      -0.00109027       0.00047436 </v>
   <v>      -0.00098801      -0.00039097      -0.00020598 </v>
   <v>       0.00053759      -0.00002442      -0.00142423 </v>
   <v>      -0.00169820       0.00040639       0.00013815 </v>
   <v>      -0.00033297      -0.00013248       0.00022855 </v>
   <v>       0.00020300       0.00085307      -0.00145142 </v>
   <v>       0.00048719      -0.00042659      -0.00069442 </v>
   <v>       0.00048391      -0.00021153       0.00059677 </v>
   <v>      -0.00063870       0.00083326      -0.00085276 </v>
   <v>      -0.00134227       0.00126883       0.00009426 </v>
   <v>       0.00102221       0.00018010      -0.00100374 </v>
   <v>       0.00014271       0.00017174       0.00112282 </v>
   <v>      -0.00039209      -0.00086010      -0.00043885 </v>
   <v>       0.00096091      -0.00070536       0.00018068 </v>
   <v>       0.00060647       0.00006526      -0.00031368 </v>
   <v>       0.00051840      -0.00040764       0.00009524 </v>
   <v>      -0.00118383       0.00160009      -0.00087071 </v>
   <v>      -0.00083622       0.00058003       0.00059674 </v>
   <v>       0.00076487       0.00107688       0.00086251 </v>
   <v>      -0.00038697      -0.00015714       0.00222828 </v>
   <v>       0.00057145      -0.00010205       0.00112615 </v>
   <v>      -0.00067897      -0.00063087      -0.00108257 </v>
   <v>      -0.00078234       0.00049724       0.00041255 </v>
   <v>       0.00001872       0.00006762      -0.00061622 </v>
   <v>      -0.00073657       0.00055708      -0.00047283 </v>
   <v>      -0.00009238      -0.00013095      -0.00041118 </v>
   <v>      -0.00070315      -0.00026152      -0.00030955 </v>
   <v>      -0.00014390      -0.00042115       0.00134413 </v>
   <v>       0.00055798       0.00009714      -0.00036914 </v>
   <v>       0.00093805      -0.00095972      -0.00050678 </v>
   <v>       0.00018218      -0.00002030      -0.00014053 </v>
   <v>      -0.00056701       0.00113998      -0.00112850 </v>
   <v>      -0.00254254      -0.00106416      -0.00006286 </v>
   <v>       0.00023662      -0.00051141       0.00037170 </v>
   <v>      -0.00003822      -0.00065048      -0.00037655 </v>
   <v>      -0.00052031       0.00031713       0.00077408 </v>
   <v>       0.00048301      -0.00127299       0.00051436 </v>
   <v>       0.00024364      -0.00005530      -0.00125875 </v>
   <v>       0.00174242      -0.00122674      -0.00062641 </v>
   <v>      -0.00020288       0.00085490       0.00171148 </v>
   <v>      -0.00004919       0.00006287       0.00109223 </v>
   <v>      -0.00113405      -0.00061771      -0.00013636 </v>
   <v>       0.00164438       0.00029740       0.00022499 </v>
   <v>       0.00035322       0.00093739       0.00050558 </v>
   <v>      -0.00036818       0.00031257      -0.00079520 </v>
   <v>       0.00045901      -0.00101530      -0.00045921 </v>
   <v>       0.00011855       0.00008483      -0.00075521 </v>
   <v>      -0.00083217       0.00013825       0.00087816 </v>
   <v>       0.00042556      -0.00092303      -0.00045569 </v>
   <v>      -0.00034158      -0.00000786       0.00008116 </v>
   <v>       0.00003104       0.00047771      -0.00006826 </v>
   <v>      -0.00006821      -0.00080578      -0.00033180 </v>
   <v>      -0.00017743      -0.00046972      -0.00006160 </v>
   <v>      -0.00063599      -0.00066728      -0.00139043 </v>
   <v>      -0.00041654       0.00008416       0.00101831 </v>
   <v>       0.00095496      -0.00058345       0.00005762 </v>
   <v>      -0.00148875      -0.00081774      -0.00122843 </v>
   <v>      -0.00136693       0.00193320      -0.00008663 </v>
   <v>       0.00105238      -0.00076611      -0.00008060 </v>
   <v>       0.00041927      -0.00094499       0.00003933 </v>
   <v>      -0.00032117       0.00096074       0.00007165 </v>
   <v>       0.00207867      -0.00035997       0.00047827 </v>
   <v>      -0.00152690      -0.00061158       0.00060076 </v>
   <v>       0.00001360      -0.00126245      -0.00060295 </v>
   <v>      -0.00032440      -0.00169997       0.00114974 </v>
   <v>      -0.00015962      -0.00005620      -0.00016380 </v>
   <v>       0.00037845      -0.00003487       0.00022334 </v>
   <v>      -0.00053470      -0.00039639      -0.00022151 </v>
   <v>       0.00138426      -0.00033124      -0.00048159 </v>
   <v>      -0.00047441       0.00033164       0.00171734 </v>
   <v>      -0.00049829      -0.00051075      -0.00041363 </v>
   <v>       0.00192687       0.00036328       0.00061170 </v>
   <v>      -0.00024830      -0.00095937      -0.00048132 </v>
   <v>       0.00093541       0.00052382       0.00014340 </v>
   <v>       0.00045054      -0.00036763       0.00054811 </v>
   <v>      -0.00000406       0.00052127      -0.00028024 </v>
   <v>      -0.00039440      -0.00052660      -0.00018193 </v>
   <v>      -0.00041289       0.00016573      -0.00042566 </v>
   <v>       0.00054294       0.00151487       0.00048874 </v>
   <v>      -0.00009595       0.00016099       0.00064933 </v>
   <v>      -0.00004619      -0.00040080       0.00037892 </v>
   <v>       0.00086061      -0.00023306      -0.00109176 </v>
   <v>       0.00143221       0.00078782       0.00053849 </v>
   <v>       0.00051707       0.00039485      -0.00002550 </v>
   <v>       0.00102981       0.00010368       0.00029012 </v>
   <v>       0.00078620      -0.00045294      -0.00047593 </v>
   <v>       0.00013742      -0.00015201       0.00060903 </v>
   <v>       0.00047858      -0.00077136      -0.00022575 </v>
   <v>       0.00022672       0.00151441       0.00061077 </v>
   <v>      -0.00028694      -0.00123664      -0.00025937 </v>
   <v>      -0.00030961       0.00012849      -0.00035465 </v>
   <v>       0.00102745       0.00059617       0.00105748 </v>
   <v>       0.00022641      -0.00024507       0.00098002 </v>
   <v>      -0.00061499       0.00005369      -0.00052741 </v>
   <v>      -0.00086236      -0.00035206      -0.00024182 </v>
  </varray>
 </structure>
</modeling>
